Title: simulation of the telescopic ota designed with the sekv model
Date: Mon May 19 21:31:17  2025
Plotname: Noise Spectral Density Curves
Flags: real
No. Variables: 19
No. Points: 329
Variables:
	0	frequency	frequency grid=3
	1	inoise_spectrum	voltage-density
	2	onoise_n.x1a.nsg13_lv_nmos	voltage-density
	3	onoise_n.x1a.nsg13_lv_nmos_flicker	voltage-density
	4	onoise_n.x1b.nsg13_lv_nmos	voltage-density
	5	onoise_n.x1b.nsg13_lv_nmos_flicker	voltage-density
	6	onoise_n.x2a.nsg13_lv_pmos	voltage-density
	7	onoise_n.x2a.nsg13_lv_pmos_flicker	voltage-density
	8	onoise_n.x2b.nsg13_lv_pmos	voltage-density
	9	onoise_n.x2b.nsg13_lv_pmos_flicker	voltage-density
	10	onoise_n.x3a.nsg13_lv_nmos	voltage-density
	11	onoise_n.x3a.nsg13_lv_nmos_flicker	voltage-density
	12	onoise_n.x3b.nsg13_lv_nmos	voltage-density
	13	onoise_n.x3b.nsg13_lv_nmos_flicker	voltage-density
	14	onoise_n.x4a.nsg13_lv_pmos	voltage-density
	15	onoise_n.x4a.nsg13_lv_pmos_flicker	voltage-density
	16	onoise_n.x4b.nsg13_lv_pmos	voltage-density
	17	onoise_n.x4b.nsg13_lv_pmos_flicker	voltage-density
	18	onoise_spectrum	voltage-density
Values:
 0	1.000000000000000e+00
	1.625693372197961e-05
	6.494033465963199e-03
	6.493960795204126e-03
	6.494970402510600e-03
	6.494897736934275e-03
	6.017420056807062e-03
	6.017345091105465e-03
	6.035962047159620e-03
	6.035886849541854e-03
	7.525753542552587e-05
	7.525120451152139e-05
	7.554396661966871e-05
	7.553765866117917e-05
	1.690573307513770e-05
	1.690449683413638e-05
	1.694850583085790e-05
	1.694727077591977e-05
	1.253053838900899e-02

 1	1.057767560283176e+00
	1.580679455827102e-05
	6.314219369777131e-03
	6.314144629507000e-03
	6.315130362492540e-03
	6.315055627552747e-03
	5.850803396749783e-03
	5.850726296184795e-03
	5.868831977008989e-03
	5.868754637923354e-03
	7.317402849173327e-05
	7.316751730027022e-05
	7.345252718787464e-05
	7.344603960548510e-05
	1.643768694881914e-05
	1.643641550453711e-05
	1.647927527092936e-05
	1.647800504647559e-05
	1.218357917714339e-02

 2	1.118872211587422e+00
	1.536911992773799e-05
	6.139384372404292e-03
	6.139307503689514e-03
	6.140270139654063e-03
	6.140193276421414e-03
	5.688800407288826e-03
	5.688721111066061e-03
	5.706329793951969e-03
	5.706250252416006e-03
	7.114822318114964e-05
	7.114152657966139e-05
	7.141900899038883e-05
	7.141233667012941e-05
	1.598260281525003e-05
	1.598129516540123e-05
	1.602303949835678e-05
	1.602173310306185e-05
	1.184622736740707e-02

 3	1.183506729519469e+00
	1.494356469968710e-05
	5.969390605624617e-03
	5.969311547853519e-03
	5.970251845883267e-03
	5.970172793750411e-03
	5.531283339036777e-03
	5.531201784630807e-03
	5.548327354956094e-03
	5.548245548250941e-03
	6.917852202069949e-05
	6.917163473058002e-05
	6.944180847204863e-05
	6.943494615443839e-05
	1.554012181238181e-05
	1.553877692615856e-05
	1.557943874295894e-05
	1.557809514700292e-05
	1.151821693701138e-02

 4	1.251875025862529e+00
	1.452979330024514e-05
	5.804104018696498e-03
	5.804022709531562e-03
	5.804941411097469e-03
	5.804860107731333e-03
	5.378127979910880e-03
	5.378044103015961e-03
	5.394700065193343e-03
	5.394615928814318e-03
	6.726337177736266e-05
	6.725628836981915e-05
	6.751936648612239e-05
	6.751230876203672e-05
	1.510989501617827e-05
	1.510851183344095e-05
	1.514812319770531e-05
	1.514674134196440e-05
	1.119928922916969e-02

 5	1.324192791886045e+00
	1.412747944774049e-05
	5.643394272641501e-03
	5.643310647970242e-03
	5.644208477512685e-03
	5.644124858805357e-03
	5.229213557176740e-03
	5.229127291656145e-03
	5.245326779782023e-03
	5.245240247387799e-03
	6.540126223326254e-05
	6.539397712505088e-05
	6.565016706473173e-05
	6.564290837115323e-05
	1.469158316543403e-05
	1.469016059587795e-05
	1.472875274283993e-05
	1.472733153805406e-05
	1.088919274911514e-02

 6	1.400688178817868e+00
	1.373630589541195e-05
	5.487134637455297e-03
	5.487048631339748e-03
	5.487926296839726e-03
	5.487840296857938e-03
	5.084422642203460e-03
	5.084333920037373e-03
	5.100089708248406e-03
	5.100000711608738e-03
	6.359072499465941e-05
	6.358323244369941e-05
	6.383273622331519e-05
	6.382527083896465e-05
	1.428485639422469e-05
	1.428339331652337e-05
	1.432099667766661e-05
	1.431953500358357e-05
	1.058768296576460e-02

 7	1.481602517625661e+00
	1.335596418124209e-05
	5.335201892163602e-03
	5.335113436788361e-03
	5.335971630325710e-03
	5.335883181258897e-03
	4.943641057854990e-03
	4.943549809086913e-03
	4.958874321632729e-03
	4.958782790574699e-03
	6.183033233392303e-05
	6.182262643479003e-05
	6.206564079818589e-05
	6.205796283903007e-05
	1.388939397177148e-05
	1.388788923269580e-05
	1.392453345973734e-05
	1.392303016423273e-05
	1.029452211887224e-02

 8	1.567191080378307e+00
	1.298615438471787e-05
	5.187476227644263e-03
	5.187385253263063e-03
	5.188224651562136e-03
	5.188133683669004e-03
	4.806757788444635e-03
	4.806663941126277e-03
	4.821569262166214e-03
	4.821475124518950e-03
	6.011869606355379e-05
	6.011077074284326e-05
	6.034748731627091e-05
	6.033959073090383e-05
	1.350488404948439e-05
	1.350333646299689e-05
	1.353905045126820e-05
	1.353750434944057e-05
	1.000947903152053e-02

 9	1.657723885589316e+00
	1.262658489032664e-05
	5.043841152138944e-03
	5.043747587019713e-03
	5.044568851982933e-03
	5.044475293536524e-03
	4.673664892181712e-03
	4.673568372316316e-03
	4.688066255447964e-03
	4.687969436985789e-03
	5.845446644137739e-05
	5.844631545293907e-05
	5.867692089613147e-05
	5.866879946102560e-05
	1.313102341503069e-05
	1.312943176135425e-05
	1.316424367257956e-05
	1.316265354582004e-05
	9.732328927800871e-03

 10	1.753486550082957e+00
	1.227697215760122e-05
	4.904183399379245e-03
	4.904087169747596e-03
	4.904890948977328e-03
	4.904794726208516e-03
	4.544257416040828e-03
	4.544158147524884e-03
	4.558260025051907e-03
	4.558160449435878e-03
	5.683633110603966e-05
	5.682794802607762e-05
	5.705262417941018e-05
	5.704427149403415e-05
	1.276751725318996e-05
	1.276588027785041e-05
	1.279981756235335e-05
	1.279818215738910e-05
	9.462853255539026e-03

 11	1.854781190070612e+00
	1.193704049753246e-05
	4.768392839255679e-03
	4.768293869236804e-03
	4.769080796545914e-03
	4.768981833585302e-03
	4.418433312987332e-03
	4.418331217550643e-03
	4.432048209497187e-03
	4.431945798214964e-03
	5.526301404196472e-05
	5.525439226399976e-05
	5.547331629184697e-05
	5.546472577364594e-05
	1.241407891333895e-05
	1.241239532618059e-05
	1.244548474452468e-05
	1.244380277243537e-05
	9.200839513926952e-03

 12	1.961927374280117e+00
	1.160652185517321e-05
	4.636362390957905e-03
	4.636260602516820e-03
	4.637031298428399e-03
	4.636929517246565e-03
	4.296093361492699e-03
	4.295988358636735e-03
	4.309331281515560e-03
	4.309225953819582e-03
	5.373327457296361e-05
	5.372440730265414e-05
	5.393775183305138e-05
	5.392891671228655e-05
	1.207042968338748e-05
	1.206869815756098e-05
	1.210096580163391e-05
	1.209923593684055e-05
	8.946081085923209e-03

 13	2.075263132145056e+00
	1.128515559826212e-05
	4.507987938518410e-03
	4.507883251398502e-03
	4.508638323635037e-03
	4.508533643981091e-03
	4.177141087276935e-03
	4.177033094211452e-03
	4.190012469552625e-03
	4.189904142396528e-03
	5.224590638368450e-05
	5.223678663350218e-05
	5.244471989423284e-05
	5.243563320867607e-05
	1.173629856992503e-05
	1.173451774084688e-05
	1.176598905444318e-05
	1.176420993366857e-05
	8.698377075290774e-03

 14	2.195146020234698e+00
	1.097268831170067e-05
	4.383168248692515e-03
	4.383060580352345e-03
	4.383800624314836e-03
	4.383692963653224e-03
	4.061482687215854e-03
	4.061371618793711e-03
	4.073997681440671e-03
	4.073886269413898e-03
	5.079973656814759e-05
	5.079035715190375e-05
	5.099304310310957e-05
	5.098369769258944e-05
	1.141142208449989e-05
	1.140959054878265e-05
	1.144029034764964e-05
	1.143846056884961e-05
	8.457532148143021e-03

 15	2.321954250288979e+00
	1.066887359772128e-05
	4.261804891109809e-03
	4.261694156658130e-03
	4.262419755895448e-03
	4.262309029340975e-03
	3.949026955353097e-03
	3.948912724003223e-03
	3.961195430182678e-03
	3.961080845443247e-03
	4.939362470460525e-05
	4.938397823182406e-05
	4.958157669524511e-05
	4.957196519604019e-05
	1.109554403577490e-05
	1.109366035012742e-05
	1.112361284153345e-05
	1.112173096279810e-05
	8.223356378872490e-03

 16	2.456087882417324e+00
	1.037347188158904e-05
	4.143802160634300e-03
	4.143688272763232e-03
	4.144399999432128e-03
	4.144286119683138e-03
	3.839685210958734e-03
	3.839567726617202e-03
	3.851516761789245e-03
	3.851398913994604e-03
	4.802646195599362e-05
	4.801654082612801e-05
	4.820920761107567e-05
	4.819932245015105e-05
	1.078841532746541e-05
	1.078647800756225e-05
	1.081570680936862e-05
	1.081377134779284e-05
	7.995665100341458e-03

 17	2.597970087225644e+00
	1.008625022268373e-05
	4.029067001871274e-03
	4.028949870787581e-03
	4.029648286103693e-03
	4.029531163373352e-03
	3.733371228577038e-03
	3.733250398616184e-03
	3.744875185110836e-03
	3.744753981346766e-03
	4.669717019526766e-05
	4.668696659175365e-05
	4.687485361791501e-05
	4.686468700699788e-05
	1.048979376183621e-05
	1.048780128115544e-05
	1.051632944042863e-05
	1.051433887095095e-05
	7.774278758214711e-03

 18	2.748048480853339e+00
	9.806982130813209e-06
	3.917508935761839e-03
	3.917388469116274e-03
	3.918074123796474e-03
	3.917953665742120e-03
	3.630001170008749e-03
	3.629876899164288e-03
	3.641186603610430e-03
	3.641061948317932e-03
	4.540470115493305e-05
	4.539420703907835e-05
	4.557746245624693e-05
	4.556700638573698e-05
	1.019944384863951e-05
	1.019739463726801e-05
	1.022524464845673e-05
	1.022319740266577e-05
	7.559022769320610e-03

 19	2.906796537132124e+00
	9.535447387613375e-06
	3.809039988206373e-03
	3.808916091021015e-03
	3.809589525717479e-03
	3.809465637367962e-03
	3.529493518173295e-03
	3.529365708469377e-03
	3.540369249021962e-03
	3.540241043922086e-03
	4.414803560008845e-05
	4.413724270479089e-05
	4.431601100961764e-05
	4.430525724232779e-05
	9.917136619365792e-06
	9.915029062771255e-06
	9.942222885415384e-06
	9.940117350322949e-06
	7.349727383926997e-03

 20	3.074715081321830e+00
	9.271431872893706e-06
	3.703574620660972e-03
	3.703447195254510e-03
	3.704108940980807e-03
	3.703981524661778e-03
	3.431769012799251e-03
	3.431637563471398e-03
	3.442343616842604e-03
	3.442211760859144e-03
	4.292618252433759e-05
	4.291508234762894e-05
	4.308950449748892e-05
	4.307844456221214e-05
	9.642649446590587e-06
	9.640481884359223e-06
	9.667040960397984e-06
	9.664875477177987e-06
	7.146227551824114e-03

 21	3.252333870135678e+00
	9.014727395791668e-06
	3.601029662651716e-03
	3.600898608562628e-03
	3.601549187112195e-03
	3.601418142369294e-03
	3.336750587891857e-03
	3.336615395307726e-03
	3.347032403607611e-03
	3.346896792787624e-03
	4.173817836792933e-05
	4.172676216634000e-05
	4.189697569039495e-05
	4.188560087529255e-05
	9.375765868324974e-06
	9.373536592864170e-06
	9.399481863540627e-06
	9.397254726232945e-06
	6.948362792108060e-03

 22	3.440213263039755e+00
	8.765131530602626e-06
	3.501324246153437e-03
	3.501189460061001e-03
	3.501829384418305e-03
	3.501694607938176e-03
	3.244363310928177e-03
	3.244224268506087e-03
	3.254360445898117e-03
	3.254220973330199e-03
	4.058308625750173e-05
	4.057134503924162e-05
	4.073748414679754e-05
	4.072578549260419e-05
	9.116275417249884e-06
	9.113982672454795e-06
	9.139334594794954e-06
	9.137044048973251e-06
	6.755977066561862e-03

 23	3.638945990099385e+00
	8.522447457155947e-06
	3.404379741780467e-03
	3.404241117423542e-03
	3.404870892168271e-03
	3.404732277697346e-03
	3.154534323731296e-03
	3.154391321856463e-03
	3.164254661033129e-03
	3.164111216763388e-03
	3.945999526683529e-05
	3.944791978478632e-05
	3.961011547101907e-05
	3.959808376406016e-05
	8.863973454622034e-06
	8.861615434505219e-06
	8.886393997444250e-06
	8.884038238846888e-06
	6.568918656532874e-03

 24	3.849159021949672e+00
	8.286483805611375e-06
	3.310119696739583e-03
	3.309977124833107e-03
	3.310597246537696e-03
	3.310454684798704e-03
	3.067192784977355e-03
	3.067045710915767e-03
	3.076643989399417e-03
	3.076496460345083e-03
	3.836801969802398e-05
	3.835560044253928e-05
	3.851398059167720e-05
	3.850160635669354e-05
	8.618661008801297e-06
	8.616235856084458e-06
	8.640460596206758e-06
	8.638037769329831e-06
	6.387040043210419e-03

 25	4.071515547789679e+00
	8.057054505553268e-06
	3.218469774495302e-03
	3.218323142644443e-03
	3.218934100265222e-03
	3.218787478871340e-03
	2.982269814289276e-03
	2.982118552099143e-03
	2.991459338372960e-03
	2.991307608233563e-03
	3.730629838249396e-05
	3.729352557399903e-05
	3.744821506004404e-05
	3.743548855281917e-05
	8.380144618227573e-06
	8.377650422894409e-06
	8.401340439815579e-06
	8.398848636467100e-06
	6.210197791207462e-03

 26	4.306717067640506e+00
	7.833978639263744e-06
	3.129357696099600e-03
	3.129206888711489e-03
	3.129809163973814e-03
	3.129658367340414e-03
	2.899698437872770e-03
	2.899542868313498e-03
	2.908633527787451e-03
	2.908477476953511e-03
	3.627399400131881e-05
	3.626085758270968e-05
	3.641197836776770e-05
	3.639888956755279e-05
	8.148236178719862e-06
	8.145670976529088e-06
	8.168844947938968e-06
	8.166282205753262e-06
	6.038252435353938e-03

 27	4.555505605468011e+00
	7.617080299059012e-06
	3.042713183140065e-03
	3.042558081333063e-03
	3.043152149110653e-03
	3.042997058364568e-03
	2.819413535651983e-03
	2.819253536090586e-03
	2.828101236907035e-03
	2.827940742366186e-03
	3.527029242428504e-05
	3.525678205311852e-05
	3.540445328342490e-05
	3.539099188515659e-05
	7.922752795008384e-06
	7.920114565965917e-06
	7.942790762325887e-06
	7.940155063237172e-06
	5.871068370612850e-03

 28	4.818666050152229e+00
	7.406188448576360e-06
	2.958467902260292e-03
	2.958308383770708e-03
	2.958894712459542e-03
	2.958735205345796e-03
	2.741351789862013e-03
	2.741187234176914e-03
	2.749798952860428e-03
	2.749633888100919e-03
	3.429440206718631e-05
	3.428050710765716e-05
	3.442484520736457e-05
	3.441100061367037e-05
	7.703516636342963e-06
	7.700803303132279e-06
	7.722999602058355e-06
	7.720288870732536e-06
	5.708513745030134e-03

 29	5.097028631688890e+00
	7.201136787902494e-06
	2.876555411208770e-03
	2.876391350294980e-03
	2.876970402182007e-03
	2.876806352967937e-03
	2.665451635057744e-03
	2.665282393539887e-03
	2.673664920495700e-03
	2.673495155407202e-03
	3.334555326683394e-05
	3.333126278153423e-05
	3.347238154433734e-05
	3.345814285732383e-05
	7.490354796095374e-06
	7.487564222465024e-06
	7.509298122790942e-06
	7.506510225014601e-06
	5.550460355633827e-03

 30	5.391471540435052e+00
	7.001763622436775e-06
	2.796911106373236e-03
	2.796742373717124e-03
	2.797314605344068e-03
	2.797145884720773e-03
	2.591653209499119e-03
	2.591479148750314e-03
	2.599639093615755e-03
	2.599464494387397e-03
	3.242299767328075e-05
	3.240830041473594e-05
	3.254631109340773e-05
	3.253166710622637e-05
	7.283099155215650e-06
	7.280229144322924e-06
	7.301517779866262e-06
	7.298650520891825e-06
	5.396783547199475e-03

 31	5.702923697662160e+00
	6.807911735386048e-06
	2.719472171758538e-03
	2.719298634364191e-03
	2.719864496886761e-03
	2.719690971867806e-03
	2.519898307873993e-03
	2.519719290702455e-03
	2.527663087555509e-03
	2.527483516571083e-03
	3.152600765878249e-05
	3.151089206075940e-05
	3.164590345465927e-05
	3.163084264284470e-05
	7.081586249452531e-06
	7.078634542162250e-06
	7.099494695203531e-06
	7.096545818049599e-06
	5.247362113800919e-03

 32	6.032367686157211e+00
	6.619428263790420e-06
	2.644177529367187e-03
	2.643999050456785e-03
	2.644558989999513e-03
	2.644380523816825e-03
	2.450130335320734e-03
	2.449946220633704e-03
	2.457680133062802e-03
	2.457495448793061e-03
	3.065387574301214e-05
	3.063832991159362e-05
	3.077044845222290e-05
	3.075495896479880e-05
	6.885657140239810e-06
	6.882621413377217e-06
	6.903069527842130e-06
	6.900036711547956e-06
	5.102078203067597e-03

 33	6.380842850117579e+00
	6.436164577982301e-06
	2.570967790942954e-03
	2.570784229849775e-03
	2.571338687856784e-03
	2.571155139853663e-03
	2.382294262713836e-03
	2.382104905407240e-03
	2.389635031446241e-03
	2.389445088338215e-03
	2.980591403407692e-05
	2.978992573849823e-05
	2.991925557316241e-05
	2.990332522350971e-05
	6.695157289101449e-06
	6.692035153658192e-06
	6.712087348047787e-06
	6.708968205880862e-06
	4.960817223071933e-03

 34	6.749448574119218e+00
	6.257976164383606e-06
	2.499785211038653e-03
	2.499596423097124e-03
	2.500145836679073e-03
	2.499957062200252e-03
	2.316336583176530e-03
	2.316141834021597e-03
	2.323474110953808e-03
	2.323278759317067e-03
	2.898145368488259e-05
	2.896501034812427e-05
	2.909165342176916e-05
	2.907526967825162e-05
	6.509936435537682e-06
	6.506725434829861e-06
	6.526397514875562e-06
	6.523189592491322e-06
	4.823467751771791e-03

 35	7.139347751502845e+00
	6.084722511548754e-06
	2.430573641370668e-03
	2.430379477803392e-03
	2.430924280080864e-03
	2.430730130359549e-03
	2.252205269785721e-03
	2.252004975312482e-03
	2.259145184347466e-03
	2.258944270237263e-03
	2.817984436441241e-05
	2.816293305354492e-05
	2.828698918882490e-05
	2.827013916516714e-05
	6.329848478233635e-06
	6.326546086010913e-06
	6.345853557087232e-06
	6.342554330639852e-06
	4.689921448935794e-03

 36	7.551770453120341e+00
	5.916266999363496e-06
	2.363278486423031e-03
	2.363078794224726e-03
	2.363619414668297e-03
	2.363419736710105e-03
	2.189849734434769e-03
	2.189643736812368e-03
	2.196597507639183e-03
	2.196390872736392e-03
	2.740045374349081e-05
	2.738306115976586e-05
	2.750462813540795e-05
	2.748729858082103e-05
	6.154751359544572e-06
	6.151354978049358e-06
	6.170313057335308e-06
	6.166919931538615e-06
	4.560072970479685e-03

 37	7.988017808015676e+00
	5.752476791312355e-06
	2.297846660265598e-03
	2.297641282083866e-03
	2.298178146851111e-03
	2.297972783314853e-03
	2.129220787821264e-03
	2.129008924735010e-03
	2.135781739955411e-03
	2.135569221443200e-03
	2.664266699461856e-05
	2.662477946330257e-05
	2.674395309082135e-05
	2.672613037987117e-05
	5.984506953119797e-06
	5.981013911095549e-06
	5.999637539512330e-06
	5.996147845649859e-06
	4.433819885145378e-03

 38	8.449466108283303e+00
	5.593222729729546e-06
	2.234226544551218e-03
	2.234015318564078e-03
	2.234548850833750e-03
	2.234337639908972e-03
	2.070270600527268e-03
	2.070052705052350e-03
	2.076649904497409e-03
	2.076431334934564e-03
	2.590588630547462e-05
	2.588748976541952e-05
	2.600436396424080e-05
	2.598603408645476e-05
	5.818980954619861e-06
	5.815388505267543e-06
	5.833692359181911e-06
	5.830103353065163e-06
	4.311062593454909e-03

 39	8.937571151054209e+00
	5.438379233950939e-06
	2.172367947657503e-03
	2.172150707447624e-03
	2.172681327751244e-03
	2.172464103032469e-03
	2.012952665160176e-03
	2.012728565631976e-03
	2.019155350565432e-03
	2.018930557756269e-03
	2.518953040568358e-05
	2.517061039863084e-05
	2.528527726968160e-05
	2.526642581888910e-05
	5.658042775394617e-06
	5.654348094276427e-06
	5.672346596992890e-06
	5.668655456866897e-06
	4.191704248872984e-03

 40	9.453872831307907e+00
	5.287824201286644e-06
	2.112222064940440e-03
	2.111998639365995e-03
	2.112526765917082e-03
	2.112303356274672e-03
	1.957221759523801e-03
	1.956991279404731e-03
	1.963252716616345e-03
	1.963021523477137e-03
	2.449303410647398e-05
	2.447357576608750e-05
	2.458612566389834e-05
	2.456673782730115e-05
	5.501565439066766e-06
	5.497765621956279e-06
	5.515472954999912e-06
	5.511676779395250e-06
	4.075650681114859e-03

 41	9.999999999999963e+00
	5.141438910736158e-06
	2.053741440066750e-03
	2.053511653128836e-03
	2.054037702149986e-03
	2.053807931597573e-03
	1.903033910789047e-03
	1.902796868531845e-03
	1.908897894323891e-03
	1.908660118745735e-03
	2.381584785283419e-05
	2.379583589345848e-05
	2.390635749683833e-05
	2.388641804380681e-05
	5.349425480918459e-06
	5.345517541596381e-06
	5.362947655797100e-06
	5.359043461327542e-06
	3.962810321535719e-03

 42	1.057767560283172e+01
	4.999107929370156e-06
	1.996879927393630e-03
	1.996643598100182e-03
	1.997167984148242e-03
	1.996931671706647e-03
	1.850346360635121e-03
	1.850102569542535e-03
	1.856047993612476e-03
	1.855803448320549e-03
	2.315743728781410e-05
	2.313685599295417e-05
	2.324543637428021e-05
	2.322492964487225e-05
	5.201502850011034e-06
	5.197483718005834e-06
	5.214650344386796e-06
	5.210635063491894e-06
	3.853094130541064e-03

 43	1.118872211587418e+01
	4.860719021305121e-06
	1.941592655364700e-03
	1.941349597590841e-03
	1.941872733880336e-03
	1.941629693437937e-03
	1.799117531332325e-03
	1.798866799413131e-03
	1.804661308635465e-03
	1.804409801044595e-03
	2.251728282859985e-05
	2.249611603912002e-05
	2.260284073229401e-05
	2.258175062549343e-05
	5.057680813948749e-06
	5.053547332221548e-06
	5.070463992701095e-06
	5.066334471333032e-06
	3.746415526957858e-03

 44	1.183506729519464e+01
	4.726163059198977e-06
	1.887835990891525e-03
	1.887586013236297e-03
	1.888108311961367e-03
	1.887858352130832e-03
	1.749306992738151e-03
	1.749049122559440e-03
	1.754697284669573e-03
	1.754438616736068e-03
	2.189487925401389e-05
	2.187311035605299e-05
	2.197806342316998e-05
	2.195637338484224e-05
	4.917845866199664e-06
	4.913594788772807e-06
	4.930274806693215e-06
	4.926027801947392e-06
	3.642690319307468e-03

 45	1.251875025862524e+01
	4.595333938197988e-06
	1.835567504691444e-03
	1.835310410330864e-03
	1.835832282985853e-03
	1.835575206957212e-03
	1.700875430179456e-03
	1.700610218715140e-03
	1.706116485898071e-03
	1.705850453967757e-03
	2.128973530309680e-05
	2.126734721569806e-05
	2.137061131246857e-05
	2.134830432303191e-05
	4.781887635919199e-06
	4.777515625448111e-06
	4.793972135930647e-06
	4.789604313619574e-06
	3.541836638923780e-03

 46	1.324192791886039e+01
	4.468128492267035e-06
	1.784745937552256e-03
	1.784481524088657e-03
	1.785003381787559e-03
	1.784738987177552e-03
	1.653784613193492e-03
	1.653511851668984e-03
	1.658880564055498e-03
	1.658606958707918e-03
	2.070137328442949e-05
	2.067834844688417e-05
	2.078000488685556e-05
	2.075706344866650e-05
	4.649698800181372e-06
	4.645202425469410e-06
	4.661448385599776e-06
	4.656956317769987e-06
	3.443774874859765e-03

 47	1.400688178817863e+01
	4.344446412837299e-06
	1.735331167495227e-03
	1.735059226802839e-03
	1.735581480597762e-03
	1.735309559295432e-03
	1.607997365101336e-03
	1.607716838834358e-03
	1.612952227907331e-03
	1.612670833796062e-03
	2.012932869586493e-05
	2.010564905476952e-05
	2.020577787238407e-05
	2.018218399683726e-05
	4.521174998541839e-06
	4.516550731998024e-06
	4.532598930861438e-06
	4.527979093253322e-06
	3.348427610527402e-03

 48	1.481602517625655e+01
	4.224190169707203e-06
	1.687284177808703e-03
	1.687004495875446e-03
	1.687527557074253e-03
	1.687247895082752e-03
	1.563477533388009e-03
	1.563189021625508e-03
	1.568295213538841e-03
	1.568005809227903e-03
	1.957314985434880e-05
	1.954879685037679e-05
	1.964747686290241e-05
	1.962321205724565e-05
	4.396214749881465e-06
	4.391458964921184e-06
	4.407322033473254e-06
	4.402570802923870e-06
	3.255719562017453e-03

 49	1.567191080378301e+01
	4.107264934134240e-06
	1.640567025924390e-03
	1.640279382689868e-03
	1.640803663173123e-03
	1.640516040447713e-03
	1.520189960863437e-03
	1.519893236614582e-03
	1.524874255427184e-03
	1.524576613223524e-03
	1.903239753549877e-05
	1.900735208988911e-05
	1.910466095826267e-05
	1.907970621212932e-05
	4.274719371428191e-06
	4.269828339817167e-06
	4.285518760615053e-06
	4.280632412404243e-06
	3.165577518045230e-03

 50	1.657723885589309e+01
	3.993578504057008e-06
	1.595142813109745e-03
	1.594846982299417e-03
	1.595372894836781e-03
	1.595077085119021e-03
	1.478100457579620e-03
	1.477795287444877e-03
	1.482655058272035e-03
	1.482348944054069e-03
	1.850664462264047e-05
	1.848088712340634e-05
	1.857690141201712e-05
	1.855123718367933e-05
	4.156592899911476e-06
	4.151562789053597e-06
	4.167092905840311e-06
	4.162067610980690e-06
	3.077930281471061e-03

 51	1.753486550082950e+01
	3.883041231388532e-06
	1.550975654949615e-03
	1.550671403905168e-03
	1.551199362471336e-03
	1.550895133119464e-03
	1.437175773479112e-03
	1.436861917475408e-03
	1.441604269559794e-03
	1.441289442602032e-03
	1.799547576498286e-05
	1.796898605284594e-05
	1.806378128829066e-05
	1.803738749063862e-05
	4.041742014770005e-06
	4.036568884939892e-06
	4.051950912088076e-06
	4.046782734559770e-06
	2.992708612343667e-03

 52	1.854781190070605e+01
	3.775565951323507e-06
	1.508030652591052e-03
	1.507717742096994e-03
	1.508248162187264e-03
	1.507935274002802e-03
	1.397383571750680e-03
	1.397060783132676e-03
	1.401689452837138e-03
	1.401365665630904e-03
	1.749848704462997e-05
	1.747124439868730e-05
	1.756489512752484e-05
	1.753775111377909e-05
	3.930075963340685e-06
	3.924755764862248e-06
	3.940001796684835e-06
	3.934686690616220e-06
	2.909845172416104e-03

 53	1.961927374280109e+01
	3.671067913603723e-06
	1.466273864725359e-03
	1.465952048831873e-03
	1.466485347777400e-03
	1.466163554828024e-03
	1.358692402868060e-03
	1.358360427945588e-03
	1.362879061669779e-03
	1.362546059740088e-03
	1.701528565212707e-05
	1.698726877525981e-05
	1.707984862078687e-05
	1.705193316995292e-05
	3.821506487967476e-06
	3.816035058340122e-06
	3.831157078268182e-06
	3.825690885064283e-06
	2.829274471084216e-03

 54	2.075263132145048e+01
	3.569464715687460e-06
	1.425672280282135e-03
	1.425341306124273e-03
	1.425877903407057e-03
	1.425546952845798e-03
	1.321071679288457e-03
	1.320730257240197e-03
	1.325142414263012e-03
	1.324799935981660e-03
	1.654548957024696e-05
	1.651667657428295e-05
	1.660825829235069e-05
	1.657954959442764e-05
	3.715947754963505e-06
	3.710320815938135e-06
	3.725330705570005e-06
	3.719709150990678e-06
	2.750932812698929e-03

 55	2.195146020234689e+01
	3.470676237770167e-06
	1.386193791809805e-03
	1.385853399423113e-03
	1.386393716990703e-03
	1.386053348871588e-03
	1.284491650787139e-03
	1.284140513470624e-03
	1.288449668720286e-03
	1.288097445115278e-03
	1.608872726571689e-05
	1.605909565636160e-05
	1.614975119024968e-05
	1.612022683120748e-05
	3.613316285355616e-06
	3.607529439963121e-06
	3.622438987981122e-06
	3.616657679171732e-06
	2.674758245203122e-03

 56	2.321954250288969e+01
	3.374624579605173e-06
	1.347807169517862e-03
	1.347457091650569e-03
	1.348001554230465e-03
	1.347651501320722e-03
	1.248923380405151e-03
	1.248562252163252e-03
	1.252771798916821e-03
	1.252409553478250e-03
	1.564463738859640e-05
	1.561416405015056e-05
	1.570396458450947e-05
	1.567360153105282e-05
	3.513530887349464e-06
	3.507579616885054e-06
	3.522400527851052e-06
	3.516454950328964e-06
	2.600690510045300e-03

 57	2.456087882417314e+01
	3.281233999074612e-06
	1.310482035956066e-03
	1.310121997878003e-03
	1.310671033291670e-03
	1.310311020880653e-03
	1.214338720987230e-03
	1.213967318451283e-03
	1.218080570965222e-03
	1.217708019447790e-03
	1.521286847901788e-05
	1.518152965890353e-05
	1.527054567277109e-05
	1.523932025691183e-05
	3.416512590444494e-06
	3.410392251411935e-06
	3.425136154434492e-06
	3.419021669035449e-06
	2.528670993322281e-03

 58	2.597970087225633e+01
	3.190430852462109e-06
	1.274188841305866e-03
	1.273818560614329e-03
	1.274372600090703e-03
	1.274002345795772e-03
	1.180710292286975e-03
	1.180328324176780e-03
	1.184348520250096e-03
	1.183965370472496e-03
	1.479307868099509e-05
	1.476084997411666e-05
	1.484915129300981e-05
	1.481703919647394e-05
	3.322184581148332e-06
	3.315890402169027e-06
	3.330568859440997e-06
	3.324280699230308e-06
	2.458642678103163e-03

 59	2.748048480853328e+01
	3.102143536380130e-06
	1.238898839259762e-03
	1.238518025682577e-03
	1.239077504170887e-03
	1.238696717740488e-03
	1.148011458616786e-03
	1.147618625537743e-03
	1.151548929009128e-03
	1.151154880650547e-03
	1.438493546301773e-05
	1.435179179598949e-05
	1.443944764306625e-05
	1.440642388156698e-05
	3.230472140205515e-06
	3.223999218898325e-06
	3.238623734107785e-06
	3.232157001262204e-06
	2.390550097887733e-03

 60	2.906796537132112e+01
	3.016302431306211e-06
	1.204584063464037e-03
	1.204192418660156e-03
	1.204757775141815e-03
	1.204366158256090e-03
	1.116216307019781e-03
	1.115812301257499e-03
	1.119655804437735e-03
	1.119250548831836e-03
	1.398811534514067e-05
	1.395403096041793e-05
	1.404111000669695e-05
	1.400714891411087e-05
	3.141302581295453e-06
	3.134645881134289e-06
	3.149227907737902e-06
	3.142577570405227e-06
	2.324339291151876e-03

 61	3.074715081321818e+01
	2.932839846683526e-06
	1.171217304500807e-03
	1.170814521858823e-03
	1.171386199658083e-03
	1.170983445727394e-03
	1.085299625941412e-03
	1.084884131254207e-03
	1.088643857294965e-03
	1.088227077221733e-03
	1.360230363228304e-05
	1.356725207224119e-05
	1.365382248585857e-05
	1.361889769834867e-05
	3.054605191116492e-06
	3.047759538273997e-06
	3.062310487641291e-06
	3.055471376785968e-06
	2.259957756933600e-03

 62	3.252333870135666e+01
	2.851689967542481e-06
	1.138772087384731e-03
	1.138357851819779e-03
	1.138936298912749e-03
	1.138522092874596e-03
	1.055236884377920e-03
	1.054809575787664e-03
	1.058488480987688e-03
	1.058059850463643e-03
	1.322719415344438e-05