Title: simulation of the simple ota designed with the sekv model
Date: Fri Apr 18 18:50:08  2025
Plotname: Noise Spectral Density Curves
Flags: real
No. Variables: 15
No. Points: 288
Variables:
	0	frequency	frequency grid=3
	1	inoise_spectrum	voltage-density
	2	onoise_n.x1a.nsg13_lv_nmos	voltage-density
	3	onoise_n.x1a.nsg13_lv_nmos_flicker	voltage-density
	4	onoise_n.x1b.nsg13_lv_nmos	voltage-density
	5	onoise_n.x1b.nsg13_lv_nmos_flicker	voltage-density
	6	onoise_n.x2a.nsg13_lv_pmos	voltage-density
	7	onoise_n.x2a.nsg13_lv_pmos_flicker	voltage-density
	8	onoise_n.x2b.nsg13_lv_pmos	voltage-density
	9	onoise_n.x2b.nsg13_lv_pmos_flicker	voltage-density
	10	onoise_n.x3a.nsg13_lv_nmos	voltage-density
	11	onoise_n.x3a.nsg13_lv_nmos_flicker	voltage-density
	12	onoise_n.x3b.nsg13_lv_nmos	voltage-density
	13	onoise_n.x3b.nsg13_lv_nmos_flicker	voltage-density
	14	onoise_spectrum	voltage-density
Values:
 0	1.000000000000000e+01
	3.084410525484961e-06
	2.830370898949008e-05
	2.827845735939970e-05
	2.831736757098746e-05
	2.829210372342038e-05
	6.006451748898862e-05
	6.005794611506598e-05
	6.759313879063498e-05
	6.758574355795776e-05
	5.108823894638912e-06
	5.108569343926404e-06
	5.204144367138049e-06
	5.203884699255657e-06
	9.916014885853926e-05

 1	1.057767560283176e+01
	2.999045059330536e-06
	2.752140477282773e-05
	2.749543468923701e-05
	2.753468583788260e-05
	2.750870318920722e-05
	5.840171667672632e-05
	5.839495818280758e-05
	6.572191880671302e-05
	6.571431299464676e-05
	4.967376269956838e-06
	4.967114470457477e-06
	5.060057632325677e-06
	5.059790569936412e-06
	9.641574963425477e-05

 2	1.118872211587422e+01
	2.916044505755332e-06
	2.676080262281955e-05
	2.673409368417311e-05
	2.677371664424582e-05
	2.674699478303599e-05
	5.678496883320272e-05
	5.677801789231531e-05
	6.390252417390200e-05
	6.389470178762712e-05
	4.829845695096383e-06
	4.829576440410544e-06
	4.919961031694475e-06
	4.919686364249574e-06
	9.374737952145457e-05

 3	1.183506729519469e+01
	2.835343414172654e-06
	2.602130275501780e-05
	2.599383398391333e-05
	2.603385991619153e-05
	2.600637785489557e-05
	5.521299906139888e-05
	5.520585019503299e-05
	6.213352019674039e-05
	6.212547507090172e-05
	4.696123719443775e-06
	4.695846797296867e-06
	4.783744091174628e-06
	4.783461602132268e-06
	9.115293435822639e-05

 4	1.251875025862529e+01
	2.756878147244407e-06
	2.530232202463462e-05
	2.527407185187518e-05
	2.531453222752378e-05
	2.528626838650906e-05
	5.368456777412987e-05
	5.367721534793745e-05
	6.041351191541433e-05
	6.040523770928088e-05
	4.566104895664715e-06
	4.565820087740137e-06
	4.651299396011045e-06
	4.651008862665934e-06
	8.863036827620232e-05

 5	1.324192791886044e+01
	2.680586830699118e-06
	2.460329346664230e-05
	2.457423971487392e-05
	2.461516633961471e-05
	2.458609853079733e-05
	5.219846971654748e-05
	5.219090793592020e-05
	5.874114300573886e-05
	5.873263319822738e-05
	4.439686696552232e-06
	4.439393778319583e-06
	4.522522506059753e-06
	4.522223699367895e-06
	8.617769208724478e-05

 6	1.400688178817868e+01
	2.606409304540218e-06
	2.392366584862735e-05
	2.389378571555355e-05
	2.393521075404285e-05
	2.390531616409405e-05
	5.075353301571530e-05
	5.074575592123786e-05
	5.711509470960449e-05
	5.710634259416282e-05
	4.316769434177181e-06
	4.316468174715618e-06
	4.397311873429915e-06
	4.397004557828413e-06
	8.379297171482628e-05

 7	1.481602517625661e+01
	2.534287075606066e-06
	2.326290323604516e-05
	2.323217327720999e-05
	2.327412927763783e-05
	2.324338445075871e-05
	4.934861825650558e-05
	4.934061971928113e-05
	5.553408479504494e-05
	5.552508347439131e-05
	4.197256181277551e-06
	4.196946343094130e-06
	4.275568762406441e-06
	4.275252695628191e-06
	8.147432666886358e-05

 8	1.567191080378307e+01
	2.464163271444347e-06
	2.262048456953181e-05
	2.258888068066335e-05
	2.263140059958844e-05
	2.259978141984488e-05
	4.798261758308971e-05
	4.797439129993385e-05
	5.399686654510639e-05
	5.398760892582092e-05
	4.081052694824534e-06
	4.080734033667419e-06
	4.157197171589966e-06
	4.156872104473104e-06
	7.921992856280513e-05

 9	1.657723885589316e+01
	2.395982595464421e-06
	2.199590325393945e-05
	2.196340065284539e-05
	2.200651788027947e-05
	2.197399955348900e-05
	4.665445382531303e-05
	4.664599331381264e-05
	5.250222777472027e-05
	5.249270656168429e-05
	3.968067341705258e-06
	3.967739606371635e-06
	4.042103758192977e-06
	4.041769434484941e-06
	7.702799967180055e-05

 10	1.753486550082957e+01
	2.329691283332293e-06
	2.138866675877051e-05
	2.135523996677809e-05
	2.139898835153325e-05
	2.136554538669601e-05
	4.536307964926579e-05
	4.535437824269921e-05
	5.104898987480475e-05
	5.103919756548419e-05
	3.858211026463382e-06
	3.857873958601942e-06
	3.930197764432204e-06
	3.929853920588241e-06
	7.489681153081626e-05

 11	1.854781190070612e+01
	2.265237060573790e-06
	2.079829622969493e-05
	2.076391905262731e-05
	2.080833292793942e-05
	2.077393911820524e-05
	4.410747673137926e-05
	4.409852757349394e-05
	4.963600688284033e-05
	4.962593576140855e-05
	3.751397121040597e-06
	3.751050454948436e-06
	3.821390945959261e-06
	3.821037310935249e-06
	7.282468357159032e-05

 12	1.961927374280116e+01
	2.202569101352519e-06
	2.022432611084385e-05
	2.018897161952532e-05
	2.023408582896615e-05
	2.019871423213046e-05
	4.288665495539664e-05
	4.287745099504040e-05
	4.826216457918712e-05
	4.825180671048317e-05
	3.647541396463749e-06
	3.647184858877517e-06
	3.715597502273189e-06
	3.715233797312589e-06
	7.080998179735211e-05

 13	2.075263132145055e+01
	2.141637988390097e-06
	1.966630377758048e-05
	1.962994428786332e-05
	1.967579421155408e-05
	1.963941713007501e-05
	4.169965163158434e-05
	4.169018561718627e-05
	4.692637960843058e-05
	4.691572683174807e-05
	3.546561956423570e-06
	3.546195266304729e-06
	3.612734009059910e-06
	3.612359947474704e-06
	6.885111749426071e-05

 14	2.195146020234697e+01
	2.082395673997034e-06
	1.912378917945860e-05
	1.908639623176452e-05
	1.913301781290228e-05
	1.909560677343227e-05
	4.054553073756851e-05
	4.053579521146547e-05
	4.562759862506252e-05
	4.561664254776497e-05
	3.448379172692576e-06
	3.448002041006585e-06
	3.512719352405183e-06
	3.512334639350625e-06
	6.694654597854587e-05

 15	2.321954250288978e+01
	2.024795442183537e-06
	1.859635449308563e-05
	1.855789883145524e-05
	1.860532860316400e-05
	1.856685433558906e-05
	3.942338218019751e-05
	3.941336947280212e-05
	4.436479746282400e-05
	4.435352945378152e-05
	3.352915622331429e-06
	3.352527751820702e-06
	3.415474664829352e-06
	3.415078997072360e-06
	6.509476537836275e-05

 16	2.456087882417323e+01
	1.968791871820351e-06
	1.808358378461617e-05
	1.804403533526017e-05
	1.809231044777716e-05
	1.805274286375776e-05
	3.833232107784836e-05
	3.832202330165414e-05
	4.313698032705432e-05
	4.312539150989726e-05
	3.260096026633928e-06
	3.259697111584380e-06
	3.320923263093202e-06
	3.320516328774217e-06
	6.329431544939984e-05

 17	2.597970087225643e+01
	1.914340800820592e-06
	1.758507268160845e-05
	1.754440053095501e-05
	1.759355877916258e-05
	1.755286695017035e-05
	3.727148706261064e-05
	3.726089610603008e-05
	4.194317900940915e-05
	4.193126025559361e-05
	3.169847191762728e-06
	3.169436917763744e-06
	3.228990587726064e-06
	3.228572066114191e-06
	6.154377642330492e-05

 18	2.748048480853338e+01
	1.861399291314292e-06
	1.710042805398411e-05
	1.705860042621715e-05
	1.710868027752971e-05
	1.706683241237492e-05
	3.624004360179761e-05
	3.622915112282857e-05
	4.078245212432832e-05
	4.077019404600855e-05
	3.082097951028769e-06
	3.081675994726401e-06
	3.139604144228310e-06
	3.139173705469559e-06
	5.984176788802062e-05

 19	2.906796537132123e+01
	1.809925595788213e-06
	1.662926770383848e-05
	1.658625193792249e-05
	1.663729256053733e-05
	1.659425598238252e-05
	3.523717733824901e-05
	3.522597475796514e-05
	3.965388436665071e-05
	3.964127730935335e-05
	2.996779108768928e-06
	2.996345137612151e-06
	3.052693445901893e-06
	3.052250750760333e-06
	5.818694769914606e-05

 20	3.074715081321829e+01
	1.759879124164210e-06
	1.617122006385562e-05
	1.612698259004306e-05
	1.617902388156290e-05
	1.613476500441901e-05
	3.426209744890517e-05
	3.425057594476542e-05
	3.855658578979063e-05
	3.854361982488550e-05
	2.913823385777749e-06
	2.913377057757569e-06
	2.968189958263945e-06
	2.967734657855568e-06
	5.657801092146517e-05

 21	3.252333870135678e+01
	1.711220411790164e-06
	1.572592390408868e-05
	1.568043021990718e-05
	1.573351283634159e-05
	1.568799714104345e-05
	3.331403502114617e-05
	3.330218552011898e-05
	3.748969110390591e-05
	3.747635602086811e-05
	2.833165366249933e-06
	2.832706329631158e-06
	2.886027044999340e-06
	2.885558780518450e-06
	5.501368879980631e-05

 22	3.440213263039755e+01
	1.663911088318251e-06
	1.529302804687326e-05
	1.524624269259040e-05
	1.530040807774191e-05
	1.525360008740122e-05
	3.239224244640392e-05
	3.238005561790100e-05
	3.645235899350399e-05
	3.643864429196180e-05
	2.754741446191934e-06
	2.754269339237414e-06
	2.806139915409772e-06
	2.805658317847673e-06
	5.349274775842057e-05

 23	3.638945990099384e+01
	1.617913847445982e-06
	1.487219108964700e-05
	1.482407762321168e-05
	1.487936803845168e-05
	1.483123129338623e-05
	3.149599283056867e-05
	3.148345907918355e-05
	3.544377145394739e-05
	3.542966633551053e-05
	2.678489783261925e-06
	2.678004233949042e-06
	2.728465573317837e-06
	2.727970263173635e-06
	5.201398842808904e-05

 24	3.849159021949671e+01
	1.573192417496134e-06
	1.446308113545536e-05
	1.441360210691584e-05
	1.447006066135367e-05
	1.442055769349300e-05
	3.062457942072424e-05
	3.061168887877066e-05
	3.446313314633482e-05
	3.444862650619726e-05
	2.604350247998374e-06
	2.603850873727585e-06
	2.652942767385660e-06
	2.652433354368945e-06
	5.057624470019043e-05

 25	4.071515547789678e+01
	1.529711532812391e-06
	1.406537553092916e-05
	1.401449245632906e-05
	1.407216313737670e-05
	1.402125544414549e-05
	2.977731504776014e-05
	2.976405756760490e-05
	3.350967077024884e-05
	3.349475118856050e-05
	2.532264376398997e-06
	2.531750783694203e-06
	2.579511942809069e-06
	2.578988025534270e-06
	4.917838280698248e-05

 26	4.306717067640506e+01
	1.487436905948070e-06
	1.367876061152509e-05
	1.362643394628010e-05
	1.368536165061324e-05
	1.363300966829516e-05
	2.895353158441943e-05
	2.893989673060488e-05
	3.258263245387448e-05
	3.256728818687604e-05
	2.462175323812441e-06
	2.461647108012977e-06
	2.508115194349013e-06
	2.507576360021192e-06
	4.781930042736979e-05

 27	4.555505605468010e+01
	1.446335200626043e-06
	1.330293145382632e-05
	1.324912056558589e-05
	1.330935113050050e-05
	1.325551420708676e-05
	2.815257941835562e-05
	2.813855645950609e-05
	3.168128716100767e-05
	3.166550613192239e-05
	2.394027820106362e-06
	2.393484565050367e-06
	2.438696220663178e-06
	2.438142044755039e-06
	4.649792581745261e-05

 28	4.818666050152228e+01
	1.406374005448476e-06
	1.293759163470536e-05
	1.288225477570535e-05
	1.294383501086701e-05
	1.288847137839561e-05
	2.737382693978135e-05
	2.735940484028843e-05
	3.080492411448490e-05
	3.078869390416140e-05
	2.327768126076558e-06
	2.327209403775497e-06
	2.371200279901813e-06
	2.370630325821692e-06
	4.521321696516850e-05

 29	5.097028631688890e+01
	1.367521808335644e-06
	1.258245299715683e-05
	1.252554727607085e-05
	1.258852499565246e-05
	1.253159174204596e-05
	2.661666004330499e-05
	2.660182745478608e-05
	2.995285223557869e-05
	2.993616007287873e-05
	2.263343991062614e-06
	2.262769361366730e-06
	2.305574146532586e-06
	2.304987965283179e-06
	4.396416076835933e-05

 30	5.391471540435050e+01
	1.329747971673655e-06
	1.223723542261261e-05
	1.217871677591212e-05
	1.224314083111290e-05
	1.218459387152466e-05
	2.588048164356102e-05
	2.586522689608559e-05
	2.912439959891619e-05
	2.910723235084090e-05
	2.200704611736711e-06
	2.200113621991154e-06
	2.241766069360495e-06
	2.241163199188073e-06
	4.274977223561328e-05

 31	5.702923697662158e+01
	1.293022708151451e-06
	1.190166660955691e-05
	1.184148977239209e-05
	1.190741008432904e-05
	1.184720413201001e-05
	2.516471120425170e-05
	2.514902229732972e-05
	2.831891290248977e-05
	2.830125706403835e-05
	2.139800592032905e-06
	2.139192776724288e-06
	2.179725730709513e-06
	2.179105696743389e-06
	4.156909370924987e-05

 32	6.032367686157209e+01
	1.257317057268016e-06
	1.157548185826348e-05
	1.151360033487963e-05
	1.158106792783954e-05
	1.151915646454033e-05
	2.446878428022780e-05
	2.445264887355455e-05
	2.753575695234119e-05
	2.751759863609535e-05
	2.080583904185330e-06
	2.079958784578476e-06
	2.119404206733871e-06
	2.118766520615841e-06
	4.042119410983335e-05

 33	6.380842850117577e+01
	1.222602862491225e-06
	1.125842386148166e-05
	1.119478989518840e-05
	1.126385693022609e-05
	1.120019217615168e-05
	2.379215207224604e-05
	2.377555747619768e-05
	2.677431416151131e-05
	2.675563908693928e-05
	2.023007850844437e-06
	2.022364934609051e-06
	2.060753928827465e-06
	2.060098088330986e-06
	3.930516820161599e-05

 34	6.749448574119215e+01
	1.188852749050317e-06
	1.095024250090258e-05
	1.088480704361625e-05
	1.095552685248132e-05
	1.089005973581872e-05
	2.313428099405148e-05
	2.311721415992545e-05
	2.603398406285961e-05
	2.601477754533305e-05
	1.967027028241398e-06
	1.966365809068401e-06
	2.003728646101010e-06
	2.003054134739828e-06
	3.822013587833003e-05

 35	7.139347751502841e+01
	1.156040102344431e-06
	1.065069464924084e-05
	1.058340733062364e-05
	1.065583444999505e-05
	1.058851457603752e-05
	2.249465225144200e-05
	2.247709976143657e-05
	2.531418283536780e-05
	2.529442977488495e-05
	1.912597290371439e-06
	1.911917247578711e-06
	1.948283388897115e-06
	1.947589675523087e-06
	3.716524146876207e-05

 36	7.551770453120336e+01
	1.124139046950147e-06
	1.035954397777138e-05
	1.029035307399437e-05
	1.036454327999820e-05
	1.029531889989316e-05
	2.187276143298200e-05
	2.185470948990890e-05
	2.461434284355250e-05
	2.459402771316119e-05
	1.859675714167889e-06
	1.858976312295132e-06
	1.894374433314568e-06
	1.893660971704392e-06
	3.613965306155948e-05

 37	7.988017808015671e+01
	1.093124426211450e-06
	1.007656076916497e-05
	1.000541317132586e-05
	1.008142351430806e-05
	1.001024149345959e-05
	2.126811811204090e-05
	2.124955252876533e-05
	2.393391218962247e-05
	2.391301902353619e-05
	1.808220565639239e-06
	1.807501254031706e-06
	1.841959266713600e-06
	1.841225495144183e-06
	3.514256184873312e-05

 38	8.449466108283298e+01
	1.062971782395971e-06
	9.801521735469769e-06
	9.728362917700624e-06
	9.806251757221906e-06
	9.733057543383063e-06
	2.068024545984143e-05
	2.066115164844341e-05
	2.327235427802550e-05
	2.325086665942591e-05
	1.758191266942537e-06
	1.757451479323330e-06
	1.790996554174953e-06
	1.790241894987122e-06
	3.417318148733518e-05

 39	8.937571151054203e+01
	1.033657337401827e-06
	9.534209841089912e-06
	9.458983828394499e-06
	9.538810868410224e-06
	9.463548459504820e-06
	2.010867986921081e-05
	2.008904282986205e-05
	2.262914739203968e-05
	2.260704844055899e-05
	1.709548364366938e-06
	1.708787518397607e-06
	1.741446105886088e-06
	1.740669965036358e-06
	3.323074747880511e-05

 40	9.453872831307899e+01
	1.005157973999793e-06
	9.274414130615811e-06
	9.197063466481064e-06
	9.278889790663894e-06
	9.201501702382313e-06
	1.955297058873643e-05
	1.953277489828688e-05
	2.200378428207343e-05
	2.198105664094998e-05
	1.662253497202051e-06
	1.661470994031186e-06
	1.693268845428681e-06
	1.692470612028801e-06
	3.231451656548998e-05

 41	9.999999999999956e+01
	9.774512175959573e-07
	9.021929561363971e-06
	8.942395275195544e-06
	9.026283382353219e-06
	8.946710615572242e-06
	1.901267936703561e-05
	1.899190916730373e-05
	2.139577176534712e-05
	2.137239758824774e-05
	1.616269367466384e-06
	1.615464591265942e-06
	1.646426778942304e-06
	1.645605824786256e-06
	3.142376614385861e-05

 42	1.057767560283171e+02
	9.505152185004386e-07
	8.776556840487720e-06
	8.694778414925284e-06
	8.780792254460028e-06
	8.698974262542317e-06
	1.848738010685689e-05
	1.846601909261810e-05
	2.080463033663882e-05
	2.078059127414127e-05
	1.571559710471927e-06
	1.570732027960968e-06
	1.600882965139804e-06
	1.600038644217991e-06
	3.055779369394248e-05

 43	1.118872211587417e+02
	9.243287346881116e-07
	8.538102266523095e-06
	8.454017604697206e-06
	8.542222612047076e-06
	8.458097268082236e-06
	1.797665852873780e-05
	1.795468993540533e-05
	2.022989378978405e-05
	2.020517097551344e-05
	1.528089266201348e-06
	1.527238026156905e-06
	1.556601486150476e-06
	1.555733134150769e-06
	2.971591622454750e-05

 44	1.183506729519463e+02
	8.988711150376868e-07
	8.306377575237150e-06
	8.219922968036299e-06
	8.310386100032007e-06
	8.223889664087819e-06
	1.748011184395142e-05
	1.745751843494398e-05
	1.967110884962878e-05
	1.964568288604161e-05
	1.485823751475201e-06
	1.484948284229983e-06
	1.513547419167993e-06
	1.512654352963352e-06
	2.889746973379365e-05

 45	1.251875025862523e+02
	8.741222830358615e-07
	8.081199789649000e-06
	7.992309883072603e-06
	8.085099653135978e-06
	7.996166739595614e-06
	1.699734843648116e-05
	1.697411249027222e-05
	1.912783481414227e-05
	1.910168575795202e-05
	1.444729832886895e-06
	1.443829449813519e-06
	1.471686808880410e-06
	1.470768326002767e-06
	2.810180868455071e-05

 46	1.324192791886038e+02
	8.500627209336105e-07
	7.862391074096341e-06
	7.770998836777210e-06
	7.866185349879764e-06
	7.774748894948573e-06
	1.652798755377004e-05
	1.650409085061342e-05
	1.859964320640414e-05
	1.857275055364266e-05
	1.404775100483885e-06
	1.403849093465346e-06
	1.430986640660318e-06
	1.430042018760417e-06
	2.732830549434951e-05

 47	1.400688178817862e+02
	8.266734543420443e-07
	7.649778592222966e-06
	7.555815283211127e-06
	7.653470270502740e-06
	7.559461499976503e-06
	1.607165900599743e-05
	1.604708281432428e-05
	1.808611743618779e-05
	1.805846010689691e-05
	1.365928042174097e-06
	1.364975683060174e-06
	1.391414814493772e-06
	1.390443310786670e-06
	2.657635003935881e-05

 48	1.481602517625655e+02
	8.039360372556049e-07
	7.443194368765194e-06
	7.346589505673836e-06
	7.446786358682605e-06
	7.350134756078112e-06
	1.562800287364266e-05
	1.560272793612519e-05
	1.758685247086945e-05
	1.755840879341751e-05
	1.328158018837167e-06
	1.327178558886468e-06
	1.352940119627165e-06
	1.351940970323083e-06
	2.584534917202876e-05

 49	1.567191080378300e+02
	7.818325374906833e-07
	7.242475155017430e-06
	7.143156482641333e-06
	7.245970286936013e-06
	7.146603562094334e-06
	1.519666922310105e-05
	1.517067574237867e-05
	1.710145451539884e-05
	1.707220221041730e-05
	1.291435240120497e-06
	1.290427909427859e-06
	1.315532209911718e-06
	1.314504629631953e-06
	2.513472625201131e-05

 50	1.657723885589308e+02
	7.603455225280838e-07
	7.047462297859305e-06
	6.945355757386305e-06
	7.050863325582501e-06
	6.948707383865595e-06
	1.477731783012407e-05
	1.475058545418794e-05
	1.662954070107469e-05
	1.659945686501045e-05
	1.255730740900866e-06
	1.254694747809807e-06
	1.279161579825924e-06
	1.278104761003517e-06
	2.444392068997814e-05

 51	1.753486550082949e+02
	7.394580457480558e-07
	6.858001612228937e-06
	6.753031311175862e-06
	6.861311215156198e-06
	6.756290127368344e-06
	1.436961791086095e-05
	1.434212571809360e-05
	1.617073878287463e-05
	1.613979987115400e-05
	1.221016358392554e-06
	1.219950888892514e-06
	1.243799541156585e-06
	1.242712653421471e-06
	2.377238750396578e-05

 52	1.854781190070604e+02
	7.191536330469189e-07
	6.673943256928728e-06
	6.566031439944886e-06
	6.677164042151704e-06
	6.569200015328897e-06
	1.397324786028487e-05
	1.394497434415176e-05
	1.572468684509506e-05
	1.569286865489611e-05
	1.187264709883663e-06
	1.186168926991737e-06
	1.209418200319752e-06
	1.208300389868097e-06
	2.311959688788646e-05

 53	1.961927374280108e+02
	6.994162698246021e-07
	6.495141613652104e-06
	6.384208634345670e-06
	6.498276117992410e-06
	6.387289467215173e-06
	1.358789499779202e-05
	1.355881805118279e-05
	1.529103301506302e-05
	1.525831066769380e-05
	1.154449171082619e-06
	1.153322214209543e-06
	1.175990436303240e-06
	1.174840825250714e-06
	2.248503379185196e-05

 54	2.075263132145047e+02
	6.802303883326918e-07
	6.321455169121159e-06
	6.207419463076972e-06
	6.324505861111275e-06
	6.210414982509443e-06
	1.321325531976713e-05
	1.318335221898491e-05
	1.486943518468780e-05
	1.483578310756834e-05
	1.122543855057390e-06
	1.121384839357508e-06
	1.143489879212916e-06
	1.142307564931631e-06
	2.186819751396569e-05

 55	2.195146020234688e+02
	6.615808553728665e-07
	6.152746400226899e-06
	6.035524459397980e-06
	6.155715682035628e-06
	6.038437027167537e-06
	1.284903325891402e-05
	1.281828064731189e-05
	1.445956073962546e-05
	1.442495264787281e-05
	1.091523591750277e-06
	1.090331607455269e-06
	1.111890889405299e-06
	1.110674943844178e-06
	2.126860130324632e-05

 56	2.321954250288969e+02
	6.434529603358582e-07
	5.988881662065269e-06
	5.868388010735059e-06
	5.991771871369156e-06
	5.871219923172301e-06
	1.249494145015447e-05
	1.246331532141928e-05
	1.406108629583492e-05
	1.402549517345125e-05
	1.061363908051674e-06
	1.060138019787817e-06
	1.081168537189556e-06
	1.079918006177917e-06
	2.068577197335358e-05

 57	2.456087882417313e+02
	6.258324035713233e-07
	5.829731078763480e-06
	5.705878251291214e-06
	5.832544490565528e-06
	5.708631741091239e-06
	1.215070050290318e-05
	1.211817618398773e-05
	1.367369744330942e-05
	1.363709552397445e-05
	1.032041008416458e-06
	1.030780254505236e-06
	1.051298583082258e-06
	1.050012485616406e-06
	2.011924952679372e-05

 58	2.597970087225632e+02
	6.087052850792839e-07
	5.675168436992622e-06
	5.547866957570529e-06
	5.677907265389603e-06
	5.550544195550515e-06
	1.181603877953123e-05
	1.178259091323721e-05
	1.329708849677201e-05
	1.325944724424247e-05
	1.003531756007166e-06
	1.002235147749047e-06
	1.022257458598739e-06
	1.020934786111403e-06
	1.956858678928933e-05

 59	2.748048480853327e+02
	5.920580935140046e-07
	5.525071082063544e-06
	5.394229446731603e-06
	5.527737481963173e-06
	5.396832543539353e-06
	1.149069217983399e-05
	1.145629470704948e-05
	1.293096225312834e-05
	1.289225234124856e-05
	9.758136543483667e-07
	9.744801752896344e-07
	9.940222475652084e-07
	9.926619631776828e-07
	1.903334905400389e-05

 60	2.906796537132111e+02
	5.758776954914257e-07
	5.379319816504363e-06
	5.244844477686183e-06
	5.381915885293484e-06
	5.247375485460908e-06
	1.117440393132417e-05
	1.113903007292079e-05
	1.257502975547448e-05
	1.253522104780405e-05
	9.488648294770787e-07
	9.474934346595929e-07
	9.665706679361450e-07
	9.651717056930312e-07
	1.851311373531762e-05

 61	3.074715081321816e+02
	5.601513251914913e-07
	5.237798801018816e-06
	5.099594154860872e-06
	5.240326580183803e-06
	5.102055068847550e-06
	1.086692438517362e-05
	1.083054662357043e-05
	1.222901006346170e-05
	1.218807159252812e-05
	9.226640125743411e-07
	9.212536277681920e-07
	9.398810541018296e-07
	9.384423181883297e-07
	1.800747003185686e-05

 62	3.252333870135664e+02
	5.448665742469205e-07
	5.100395457725817e-06
	4.958363834541640e-06
	5.102856934426243e-06
	4.960756594660160e-06
	1.056801081763151e-05
	1.053060087803470e-05
	1.189263002982392e-05
	1.185052997601034e-05
	8.971905230633923e-07
	8.957400439824324e-07
	9.139323396711902e-07
	9.124527036129387e-07
	1.751601859848379e-05

 63	3.440213263039740e+02
	5.300113819101855e-07
	4.967000375581387e-06
	4.821042033722448e-06
	4.969397484178038e-06
	4.823368526092747e-06
	1.027742723674955e-05
	1.023895606807908e-05
	1.156562408287751e-05
	1.152232975295818e-05
	8.724242521601792e-07
	8.709325436604907e-07
	8.887040407154174e-07
	8.871823465609122e-07
	1.703837122695827e-05

 64	3.638945990099369e+02
	5.155740254906583e-07
	4.837507217885078e-06
	4.687520341380909e-06
	4.839841841423310e-06
	4.689782399805301e-06
	9.994944194247923e-06
	9.955381949764939e-06
	1.124773401480607e-05
	1.120321182014515e-05
	8.483456468622111e-07
	8.468115421236260e-07
	8.641762394580990e-07
	8.626112969438535e-07
	1.657415053498766e-05

 65	3.849159021949655e+02
	5.015431110540792e-07
	4.711812631773830e-06
	4.557693332105398e-06
	4.714086603423224e-06
	4.559892739509196e-06
	9.720338602358630e-06
	9.679654620010344e-06
	1.093870877554652e-05
	1.089292420997881e-05
	8.249356943620166e-07
	8.233579940528930e-07
	8.403295683978829e-07
	8.387201540965004e-07
	1.612298966338427e-05

 66	4.071515547789662e+02
	4.879075643766930e-07
	4.589816159606966e-06
	4.431458481999324e-06
	4.592031264058194e-06
	4.433596971830876e-06
	9.453393555485090e-06
	9.411556337987026e-06
	1.063830427209517e-05
	1.059122188951140e-05
	8.021759068717128e-07
	8.005533782972533e-07
	8.171451948499201e-07
	8.154900513013908e-07
	1.568453198105300e-05

 67	4.306717067640488e+02
	4.746566221465662e-07
	4.471420152146844e-06
	4.308716086789653e-06
	4.473578126966604e-06
	4.310795344380846e-06
	9.193898156519618e-06
	9.150875351198809e-06
	1.034628317305544e-05
	1.029786656471848e-05
	7.800483068454036e-07
	7.783796830799098e-07
	7.946048058925573e-07
	7.929026407191758e-07
	1.525843079753498e-05

 68	4.555505605467993e+02
	4.617798234047846e-07
	4.356529683440412e-06
	4.189369182067890e-06
	4.358632220385273e-06
	4.191390845956147e-06
	8.941647347662086e-06
	8.897405726088922e-06
	1.006241471825099e-05
	1.001262648987423e-05
	7.585354125862887e-07
	7.568193915898652e-07
	7.726905937059190e-07
	7.709400787113471e-07
	1.484434908283465e-05

 69	4.818666050152210e+02
	4.492670012193892e-07
	4.245052467307736e-06
	4.073323465592856e-06
	4.247101213597624e-06
	4.075289128805619e-06
	8.696441745585052e-06
	8.650947183026199e-06
	9.786474533230099e-06
	9.735276281854515e-06
	7.376202242256570e-07
	7.358554679460146e-07
	7.513852412893077e-07
	7.495850115424479e-07
	1.444195919425989e-05

 70	5.097028631688870e+02
	4.371082745850620e-07
	4.136898775344166e-06
	3.960487221585519e-06
	4.138895334896260e-06
	3.962398432888188e-06
	8.458087480791958e-06
	8.411304935521974e-06
	9.518244448488682e-06
	9.465596739200844e-06
	7.172862100609308e-07
	7.154713435210949e-07
	7.306719085443555e-07
	7.288205614488569e-07
	1.405094261000538e-05

 71	5.391471540435030e+02
	4.252940405417414e-07
	4.031981356343779e-06
	3.850771246947105e-06
	4.033927290967479e-06
	3.852629512055352e-06
	8.226396041016449e-06
	8.178289533531694e-06
	9.257512323240951e-06
	9.203374665781127e-06
	6.975172932401944e-07
	6.956509036131074e-07
	7.105342187111203e-07
	7.086303130615264e-07
	1.367098966921026e-05

 72	5.702923697662137e+02
	4.138149665054763e-07
	3.930215357052322e-06
	3.744088779332438e-06
	3.932112187605930e-06
	3.745895562089788e-06
	8.001184118511473e-06
	7.951716710696621e-06
	9.004071873567437e-06
	8.948402698884345e-06
	6.782978387807225e-07
	6.763784744519341e-07
	6.909562451444118e-07
	6.889983001701698e-07
	1.330179931822068e-05

 73	6.032367686157186e+02
	4.026619828049828e-07
	3.831518244158799e-06
	3.640355427011155e-06
	3.833367451668507e-06
	3.642112150532702e-06
	7.782273461077693e-06
	7.731407235382685e-06
	8.757722504770965e-06
	8.700479141588286e-06
	6.596126409090712e-07
	6.576388105289481e-07
	6.719224984176748e-07
	6.699089928164664e-07
	1.294307886278710e-05

 74	6.380842850117552e+02
	3.918262754174945e-07
	3.735809727435537e-06
	3.539489100449998e-06
	3.737612754177278e-06
	3.541197148233075e-06
	7.569490726680715e-06
	7.517186765374509e-06
	8.518269147771348e-06
	8.459407799240697e-06
	6.414469107104314e-07
	6.394170822375855e-07
	6.534179137419051e-07
	6.513472847040358e-07
	1.259454372592465e-05

 75	6.749448574119189e+02
	3.812992788976308e-07
	3.643011683937447e-06
	3.441409945549879e-06
	3.644769934482111e-06
	3.443070662552490e-06
	7.362667341506782e-06
	7.308885706083915e-06
	8.285522099369451e-06
	8.224997819895308e-06
	6.237862640749278e-07
	6.216988638128766e-07
	6.354278386870433e-07
	6.332984809129421e-07
	1.225591721116240e-05

 76	7.139347751502813e+02
	3.710726694931297e-07
	3.553048083171931e-06
	3.346040278471745e-06
	3.554762925394404e-06
	3.347654972159510e-06
	7.161639361305910e-06
	7.106339072132665e-06
	8.059296866210832e-06
	7.997063538545148e-06
	6.066167099286223e-07
	6.044701215580433e-07
	6.179380211933843e-07
	6.157482859066272e-07
	1.192693027090429e-05

 77	7.551770453120307e+02
	3.611383584414210e-07
	3.465844913151682e-06
	3.253304521985563e-06
	3.467517679204145e-06
	3.254874463347922e-06
	6.966247335870819e-06
	6.909386352170059e-06
	7.839414012278163e-06
	7.775424324996099e-06
	5.899246387369373e-07
	5.877172023462857e-07
	6.009345978604795e-07
	5.986827918191620e-07
	1.160732127962080e-05

 78	7.988017808015640e+02
	3.514884854411156e-07
	3.381330107243271e-06
	3.163129143276838e-06
	3.382962094493123e-06
	3.164655567813209e-06
	6.776336176498505e-06
	6.717871376786006e-06
	7.625699009740191e-06
	7.559904435223980e-06
	5.736968112682003e-07
	5.714268223859187e-07
	5.844040825010118e-07
	5.820884670107654e-07
	1.129683581158482e-05

 79	8.449466108283265e+02
	3.421154122926188e-07
	3.299433471725121e-06
	3.075442593145231e-06
	3.301025943657871e-06
	3.076926701821785e-06
	6.591755026279984e-06
	6.531642189380680e-06
	7.417982092983330e-06
	7.350332866058766e-06