Title: simulation of the symmetrical ota designed with the sekv model
Date: Wed May  7 20:44:57  2025
Plotname: Noise Spectral Density Curves
Flags: real
No. Variables: 23
No. Points: 288
Variables:
	0	frequency	frequency grid=3
	1	inoise_spectrum	voltage-density
	2	onoise_n.x1a.nsg13_lv_nmos	voltage-density
	3	onoise_n.x1a.nsg13_lv_nmos_flicker	voltage-density
	4	onoise_n.x1b.nsg13_lv_nmos	voltage-density
	5	onoise_n.x1b.nsg13_lv_nmos_flicker	voltage-density
	6	onoise_n.x2a.nsg13_lv_pmos	voltage-density
	7	onoise_n.x2a.nsg13_lv_pmos_flicker	voltage-density
	8	onoise_n.x2b.nsg13_lv_pmos	voltage-density
	9	onoise_n.x2b.nsg13_lv_pmos_flicker	voltage-density
	10	onoise_n.x2c.nsg13_lv_pmos	voltage-density
	11	onoise_n.x2c.nsg13_lv_pmos_flicker	voltage-density
	12	onoise_n.x2d.nsg13_lv_pmos_flicker	voltage-density
	13	onoise_n.x2d.nsg13_lv_pmos	voltage-density
	14	onoise_n.x3a.nsg13_lv_nmos	voltage-density
	15	onoise_n.x3a.nsg13_lv_nmos_flicker	voltage-density
	16	onoise_n.x3b.nsg13_lv_nmos	voltage-density
	17	onoise_n.x3b.nsg13_lv_nmos_flicker	voltage-density
	18	onoise_n.x4.nsg13_lv_pmos	voltage-density
	19	onoise_n.x4.nsg13_lv_pmos_flicker	voltage-density
	20	onoise_n.x7.nsg13_lv_nmos	voltage-density
	21	onoise_n.x7.nsg13_lv_nmos_flicker	voltage-density
	22	onoise_spectrum	voltage-density
Values:
 0	1.000000000000000e+01
	6.820188377879631e-06
	1.258487784043409e-02
	1.258404836530788e-02
	1.258956615216913e-02
	1.258873892212764e-02
	8.782677783605478e-03
	8.781938714926493e-03
	8.907711908138589e-03
	8.906963962469473e-03
	1.038470935791275e-02
	1.038383576497696e-02
	1.055889643411398e-02
	1.055979718935952e-02
	5.249324725310287e-03
	5.248547228824637e-03
	5.351446092230204e-03
	5.350648962581112e-03
	1.129998889013128e-04
	1.129975665044772e-04
	3.548601187670126e-05
	3.548055585405647e-05
	2.736684908409986e-02

 1	1.057767560283176e+01
	6.631370448342280e-06
	1.223537029036990e-02
	1.223451727031082e-02
	1.223992825475555e-02
	1.223907754350370e-02
	8.538774027516953e-03
	8.538013980523200e-03
	8.660335736851812e-03
	8.659566560892260e-03
	1.009631556473664e-02
	1.009541717504158e-02
	1.026561540678199e-02
	1.026654172975198e-02
	5.103564576667967e-03
	5.102765012579214e-03
	5.202850550906320e-03
	5.202030796428002e-03
	1.098613652407960e-04
	1.098589769188094e-04
	3.450066849210761e-05
	3.449505761264464e-05
	2.660684000323466e-02

 2	1.118872211587422e+01
	6.447781721617000e-06
	1.189544702048421e-02
	1.189456979646618e-02
	1.189987820791999e-02
	1.189900335821485e-02
	8.301558910880368e-03
	8.300777298421077e-03
	8.419743427422728e-03
	8.418952426969195e-03
	9.815830473022357e-03
	9.814906592544803e-03
	9.980375707667655e-03
	9.981328313960680e-03
	4.961802176407787e-03
	4.960979927207853e-03
	5.058330531070896e-03
	5.057487518664416e-03
	1.068088988697759e-04
	1.068064427771079e-04
	3.354235033225269e-05
	3.353658026276152e-05
	2.586767273954100e-02

 3	1.183506729519469e+01
	6.269277427808586e-06
	1.156483441998662e-02
	1.156393231593200e-02
	1.156914229883437e-02
	1.156824263642756e-02
	8.070841494203611e-03
	8.070037713939323e-03
	8.185741321989798e-03
	8.184927887467575e-03
	9.543028314355502e-03
	9.542078231118906e-03
	9.702947743879980e-03
	9.703927367605803e-03
	4.823923415958295e-03
	4.823077848176865e-03
	4.917769704452851e-03
	4.916902784654183e-03
	1.038400328142965e-04
	1.038375070576408e-04
	3.261028601910659e-05
	3.260435231437340e-05
	2.514875232179445e-02

 4	1.251875025862529e+01
	6.095716806377670e-06
	1.124326574451137e-02
	1.124233806706125e-02
	1.124745368365391e-02
	1.124652851706252e-02
	7.846435629860558e-03
	7.845609064058868e-03
	7.958140622777082e-03
	7.957304129033581e-03
	9.277688986262920e-03
	9.276711970095986e-03
	9.433107683745591e-03
	9.434115077774087e-03
	4.689817050709885e-03
	4.688947514700958e-03
	4.781054662457777e-03
	4.780163169218978e-03
	1.009523717555662e-04
	1.009497743931944e-04
	3.170372353528013e-05
	3.169762163659034e-05
	2.444949871025943e-02

 5	1.324192791886044e+01
	5.926962995143117e-06
	1.093048086685145e-02
	1.092952690516739e-02
	1.093455213815849e-02
	1.093360075846729e-02
	7.628159788131677e-03
	7.627309803490964e-03
	7.736757215658241e-03
	7.735897021784602e-03
	9.019597846521690e-03
	9.018593148850005e-03
	9.170637247683581e-03
	9.171673183859528e-03
	4.559374596034678e-03
	4.558480425792693e-03
	4.648074810164862e-03
	4.647158060665581e-03
	9.814357979189342e-05
	9.814090883309654e-05
	3.082192952110921e-05
	3.081565475495813e-05
	2.376934625463253e-02

 6	1.400688178817868e+01
	5.762882922358514e-06
	1.062622603012717e-02
	1.062524505573071e-02
	1.063018381082925e-02
	1.062920549153067e-02
	7.415836884942130e-03
	7.414962832449038e-03
	7.521411495442383e-03
	7.520526944629235e-03
	8.768545509475301e-03
	8.767512363152874e-03
	8.915323501128430e-03
	8.916388770445179e-03
	4.432490224318335e-03
	4.431570737329923e-03
	4.518722261355455e-03
	4.517779555850967e-03
	9.541137822245415e-05
	9.540863162708992e-05
	2.996418857856605e-05
	2.995773615561959e-05
	2.310774315727605e-02

 7	1.481602517625661e+01
	5.603347201777584e-06
	1.033025360303890e-02
	1.032924486969631e-02
	1.033410097801031e-02
	1.033309497488949e-02
	7.209294111053074e-03
	7.208395325880330e-03
	7.311928192633640e-03
	7.311018612067692e-03
	8.524327644068040e-03
	8.523265263256528e-03
	8.666958649207889e-03
	8.668054061931852e-03
	4.309060662857331e-03
	4.308115159995659e-03
	4.392891734423827e-03
	4.391922356136726e-03
	9.275354334995465e-05
	9.275071902812074e-05
	2.912980258102437e-05
	2.912316759537876e-05
	2.246415094098025e-02

 8	1.567191080378307e+01
	5.448230030625843e-06
	1.004232183695441e-02
	1.004128458061525e-02
	1.004606180090565e-02
	1.004502735197917e-02
	7.008362762531480e-03
	7.007438563983665e-03
	7.108136201487581e-03
	7.107200902296735e-03
	8.286744773391152e-03
	8.285652353495761e-03
	8.425339832967362e-03
	8.426466218704068e-03
	4.188985092516884e-03
	4.188012857986589e-03
	4.270480449063380e-03
	4.269483664127154e-03
	9.016790429975105e-05
	9.016500011160886e-05
	2.831808998818039e-05
	2.831126741697697e-05
	2.183804392071030e-02

 9	1.657723885589316e+01
	5.297409090397989e-06
	9.762194624535536e-03
	9.761128063334680e-03
	9.765830084116111e-03
	9.764766409633998e-03
	6.812878072292389e-03
	6.811927763808358e-03
	6.909868409155326e-03
	6.908906686411122e-03
	8.055602075497093e-03
	8.054478793169426e-03
	8.190268926894171e-03
	8.191427134585268e-03
	4.072165047025891e-03
	4.071165348367777e-03
	4.151388023602170e-03
	4.150363081066045e-03
	8.765234085275547e-05
	8.764935460853136e-05
	2.752838516525171e-05
	2.752136986871121e-05
	2.122890867869594e-02

 10	1.753486550082957e+01
	5.150765450402826e-06
	9.489641259698358e-03
	9.488544594032840e-03
	9.493175035510256e-03
	9.492081338032591e-03
	6.622679042569577e-03
	6.621701911791525e-03
	6.716961525769291e-03
	6.715972658556789e-03
	7.830709185311431e-03
	7.829554198531131e-03
	7.961552337570005e-03
	7.962743235409053e-03
	3.958504312822122e-03
	3.957476400988134e-03
	4.035516372899359e-03
	4.034462504805197e-03
	8.520478129058008e-05
	8.520171075077544e-05
	2.676003770591214e-05
	2.675282442786224e-05
	2.063624354241492e-02

 11	1.854781190070612e+01
	5.008183473979646e-06
	9.224436198699703e-03
	9.223308611393014e-03
	9.227871027222112e-03
	9.226746491782898e-03
	6.437608278169739e-03
	6.436603597090290e-03
	6.529255915323688e-03
	6.528239166890323e-03
	7.611879997471362e-03
	7.610692445719974e-03
	7.739000803279299e-03
	7.740225278532423e-03
	3.847908829360563e-03
	3.846851938871051e-03
	3.922769606713740e-03
	3.921686028257309e-03
	8.282320025068702e-05
	8.282004312653304e-05
	2.601241175834058e-05
	2.600499512732110e-05
	2.005955806501934e-02

 12	1.961927374280116e+01
	4.869550727312140e-06
	8.966358822239869e-03
	8.965199478808451e-03
	8.969697357665523e-03
	8.968541152038448e-03
	6.257511820433080e-03
	6.256478845633477e-03
	6.346595427271409e-03
	6.345550045268033e-03
	7.398932469999324e-03
	7.397711474541838e-03
	7.522429194482433e-03
	7.523688153197990e-03
	3.740286589837945e-03
	3.739199939034951e-03
	3.813053928496463e-03
	3.811939838287154e-03
	8.050561659094549e-05
	8.050237054514347e-05
	2.528488535408981e-05
	2.527725988513173e-05
	1.949837250796418e-02

 13	2.075263132145055e+01
	4.734757890767884e-06
	8.715193198524769e-03
	8.714001247563309e-03
	8.718438014508381e-03
	8.717249289591042e-03
	6.082238981860194e-03
	6.081176954854385e-03
	6.168827228796850e-03
	6.167752445625940e-03
	7.191688428764534e-03
	7.190433093056100e-03
	7.311656315108051e-03
	7.312950681697191e-03
	3.635547542308762e-03
	3.634430333720932e-03
	3.706277534582785e-03
	3.705132115017784e-03
	7.825009126266934e-05
	7.824675391046328e-05
	2.457684973960038e-05
	2.456900983678850e-05
	1.895221732571381e-02

 14	2.195146020234697e+01
	4.603698672693528e-06
	8.470727847326581e-03
	8.469502421031047e-03
	8.473881438645723e-03
	8.472659328981251e-03
	5.911642181432115e-03
	5.910550329133649e-03
	5.995801637791697e-03
	5.994696671079856e-03
	6.989973372764146e-03
	6.988682783001945e-03
	7.106504704699004e-03
	7.107835421366580e-03
	3.533603491207874e-03
	3.532454912044799e-03
	3.602350513798206e-03
	3.601172931569354e-03
	7.605472519297146e-05
	7.605129410360569e-05
	2.388770871044641e-05
	2.387964867039018e-05
	1.842063265261003e-02

 15	2.321954250288978e+01
	4.476269725597713e-06
	8.232755505202961e-03
	8.231495720052866e-03
	8.235820289331916e-03
	8.234563913789383e-03
	5.745576780734707e-03
	5.744454316065562e-03
	5.827371956646640e-03
	5.826236009860723e-03
	6.793616280355437e-03
	6.792289506198334e-03
	6.906800441548437e-03
	6.908168467550897e-03
	3.434367999345117e-03
	3.433187222141224e-03
	3.501184747545670e-03
	3.499974154299666e-03
	7.391765717753225e-05
	7.391412987615449e-05
	2.321687794877855e-05
	2.320859196513275e-05
	1.790316779224847e-02

 16	2.456087882417323e+01
	4.352370564655570e-06
	8.001072892185759e-03
	7.999777849809995e-03
	8.004051210783028e-03
	8.002759673420913e-03
	5.583900921103915e-03
	5.582747043766950e-03
	5.663394307078459e-03
	5.662226570307296e-03
	6.602449416695095e-03
	6.601085512176691e-03
	6.712372947089389e-03
	6.713779257793266e-03
	3.337756290500157e-03
	3.336542473931002e-03
	3.402693810504574e-03
	3.401449343679924e-03
	7.183706178665299e-05
	7.183343575673071e-05
	2.256378436480464e-05
	2.255526653399987e-05
	1.739938071003816e-02

 17	2.597970087225643e+01
	4.231903488470573e-06
	7.775480480411903e-03
	7.774149268665560e-03
	7.778374600722058e-03
	7.777046991862147e-03
	5.426475362121032e-03
	5.425289259560526e-03
	5.503727466326418e-03
	5.502527117252873e-03
	6.416308142774758e-03
	6.414906147438755e-03
	6.523054791936901e-03
	6.524500377648056e-03
	3.243685152813054e-03
	3.242437442709738e-03
	3.306792872140790e-03
	3.305513656007896e-03
	6.981114728910246e-05
	6.980741997542942e-05
	2.192786544366556e-05
	2.191910977202924e-05
	1.690883752997037e-02

 18	2.748048480853338e+01
	4.114773502031283e-06
	7.555782265409359e-03
	7.554413959692471e-03
	7.558594381580433e-03
	7.557229779122975e-03
	5.273163321954879e-03
	5.271944170532677e-03
	5.348232705221967e-03
	5.346998910313207e-03
	6.235030726640440e-03
	6.233589666930868e-03
	6.338681504183975e-03
	6.340167368714052e-03
	3.152072843266148e-03
	3.150790373856852e-03
	3.213398599329097e-03
	3.212083746263198e-03
	6.783815359985804e-05
	6.783432241223762e-05
	2.130856859965479e-05
	2.129956901212621e-05
	1.643111203714534e-02

 19	2.906796537132123e+01
	4.000888241802156e-06
	7.341785540997755e-03
	7.340379205850578e-03
	7.344517775315571e-03
	7.343115246330235e-03
	5.123830320219853e-03
	5.122577286638012e-03
	5.196773628810143e-03
	5.195505544757354e-03
	6.058458157586667e-03
	6.056977048529483e-03
	6.159091380759479e-03
	6.160618539691931e-03
	3.062838993655473e-03
	3.061520889066603e-03
	3.122429060493904e-03
	3.121077672514191e-03
	6.591635026049533e-05
	6.591241257819737e-05
	2.070535054051624e-05
	2.069610089118345e-05
	1.596578518814150e-02

 20	3.074715081321829e+01
	3.890157902889421e-06
	7.133300679092218e-03
	7.131855370105807e-03
	7.135955083133602e-03
	7.134513685764851e-03
	4.978344024248234e-03
	4.977056267252668e-03
	5.049216020433939e-03
	5.047912795876426e-03
	5.886433964387723e-03
	5.884911811604542e-03
	5.984125302932721e-03
	5.985694781546356e-03
	2.975904518587051e-03
	2.974549894640300e-03
	3.033803631814058e-03
	3.032414802426178e-03
	6.404403446399710e-05
	6.403998764109700e-05
	2.011767664542014e-05
	2.010817073013374e-05
	1.551244463202725e-02

 21	3.252333870135678e+01
	3.782495168224536e-06
	6.930140916085992e-03
	6.928655682171122e-03
	6.932719471793501e-03
	6.931238257523365e-03
	4.836574099945277e-03
	4.835250772348789e-03
	4.905427690466807e-03
	4.904088468039297e-03
	5.718804038947642e-03
	5.717239841046991e-03
	5.813626557374231e-03
	5.815239388177500e-03
	2.891191526194651e-03
	2.889799492540373e-03
	2.947442906201803e-03
	2.946015722585172e-03
	6.221952913871986e-05
	6.221537051044021e-05
	1.954502036131342e-05
	1.953525193266054e-05
	1.507068424565676e-02

 22	3.440213263039755e+01
	3.677815139709404e-06
	6.732122147916862e-03
	6.730596033978980e-03
	6.734626768598327e-03
	6.733104784914090e-03
	4.698392068695186e-03
	4.697032319762353e-03
	4.765278331182223e-03
	4.763902249928397e-03
	5.555416467104761e-03
	5.553809218501068e-03
	5.647440664542806e-03
	5.649097884367051e-03
	2.808623232454541e-03
	2.807192895086124e-03
	2.863268605948455e-03
	2.861802151534202e-03
	6.044118111077050e-05
	6.043690800095881e-05
	1.898686262359301e-05
	1.897682540854506e-05
	1.464010368782455e-02

 23	3.638945990099384e+01
	3.576035271269043e-06
	6.539062736478207e-03
	6.537494786550885e-03
	6.541495267735568e-03
	6.539931561254730e-03
	4.563671172173944e-03
	4.562274150414636e-03
	4.628639379642868e-03
	4.627225577842403e-03
	5.396121368785522e-03
	5.394470063001094e-03
	5.485415216635608e-03
	5.487117863230289e-03
	2.728123880204584e-03
	2.726654344403018e-03
	2.781203500165654e-03
	2.779696857655623e-03
	5.870735936850435e-05
	5.870296909839394e-05
	1.844269130855446e-05
	1.843237902913405e-05
	1.422030797806301e-02

 24	3.849159021949671e+01
	3.477075303758913e-06
	6.350783330647326e-03
	6.349172591541586e-03
	6.353145551240343e-03
	6.351539171350033e-03
	4.432286247351942e-03
	4.430851103774552e-03
	4.495383890924688e-03
	4.493931509385551e-03
	5.240770750206716e-03
	5.239074383717116e-03
	5.327399727851245e-03
	5.329148835918866e-03
	2.649618664230045e-03
	2.648109037992439e-03
	2.701171328411033e-03
	2.699623583292953e-03
	5.701645345864768e-05
	5.701194335706210e-05
	1.791200072683282e-05
	1.790140712417686e-05
	1.381090710719651e-02

 25	4.071515547789678e+01
	3.380857201675568e-06
	6.167106705904393e-03
	6.165452231436059e-03
	6.169400328556348e-03
	6.167750331629220e-03
	4.304113614458267e-03
	4.302639506338072e-03
	4.365386424487356e-03
	4.363894610359412e-03
	5.089218371403749e-03
	5.087475948092074e-03
	5.173245500303864e-03
	5.175042096907070e-03
	2.573033664070815e-03
	2.571483062081144e-03
	2.623096732185160e-03
	2.621506976803753e-03
	5.536687204974997e-05
	5.536223946492523e-05
	1.739429116904886e-05
	1.738341003127698e-05
	1.341151568829004e-02

 26	4.306717067640506e+01
	3.287305091620721e-06
	5.987857627344336e-03
	5.986158483206255e-03
	5.990084299498660e-03
	5.988389753751908e-03
	4.179030981257173e-03
	4.177517076479356e-03
	4.238522947089220e-03
	4.236990858259391e-03
	4.941319633046590e-03
	4.939530169336991e-03
	5.022805509621644e-03
	5.024650608889937e-03
	2.498295786550620e-03
	2.496703334755303e-03
	2.546905196339249e-03
	2.545272534587436e-03
	5.375704170608543e-05
	5.375228401929704e-05
	1.688906851714083e-05
	1.687789371146828e-05
	1.302175265843288e-02

 27	4.555505605468010e+01
	3.196345202470203e-06
	5.812862741792833e-03
	5.811118011142871e-03
	5.815024046331733e-03
	5.813284037399929e-03
	4.056917367621524e-03
	4.055362849662027e-03
	4.114670756288358e-03
	4.113097566421289e-03
	4.796931487255047e-03
	4.795094018000186e-03
	4.875934315025144e-03
	4.877828912084215e-03
	2.425332720408087e-03
	2.423697561262836e-03
	2.472523002819741e-03
	2.470846555518083e-03
	5.218540592333705e-05
	5.218052056453059e-05
	1.639584393749250e-05
	1.638436944705391e-05
	1.264124104377436e-02

 28	4.818666050152228e+01
	3.107905807200616e-06
	5.641950505740932e-03
	5.640159295580008e-03
	5.644047961679590e-03
	5.642261598975439e-03
	3.937653055088397e-03
	3.936057128698776e-03
	3.993708429281578e-03
	3.992093333572748e-03
	4.655912377953169e-03
	4.654025963153828e-03
	4.732487999522320e-03
	4.734433063565366e-03
	2.354072905828421e-03
	2.352394204285948e-03
	2.399877199602985e-03
	2.398156110638679e-03
	5.065042448639241e-05
	5.064540895202547e-05
	1.591413367477661e-05
	1.590235364064865e-05
	1.226960780241118e-02

 29	5.097028631688890e+01
	3.021917166327807e-06
	5.474951156910589e-03
	5.473112605327130e-03
	5.476986220083429e-03
	5.475152644022583e-03
	3.821119566848320e-03
	3.819481464512633e-03
	3.875515802610513e-03
	3.873858024320660e-03
	4.518122217208676e-03
	4.516185949645909e-03
	4.592324146777005e-03
	4.594320613195106e-03
	2.284445522132985e-03
	2.282722472443053e-03
	2.328895588140613e-03
	2.327129031439370e-03
	4.915057321933831e-05
	4.914542509264797e-05
	1.544345896852310e-05
	1.543136773744798e-05
	1.190648376211329e-02

 30	5.391471540435050e+01
	2.938311472912564e-06
	5.311696738424222e-03
	5.309810022781788e-03
	5.313670802183087e-03
	5.311789192349589e-03
	3.707199684430123e-03
	3.705518673662227e-03
	3.759973989085842e-03
	3.758272786925886e-03
	4.383422404961560e-03
	4.381435418822233e-03
	4.455301862180234e-03
	4.457350623668460e-03
	2.216380497369060e-03
	2.214612330762781e-03
	2.259506733130735e-03
	2.257693920535210e-03
	4.768434420837461e-05
	4.767906118228529e-05
	1.498334611772690e-05
	1.497093829604097e-05
	1.155150367240071e-02

 31	5.702923697662158e+01
	2.857022799090152e-06
	5.152021185705760e-03
	5.150085531848640e-03
	5.153935581653615e-03
	5.152005165980553e-03
	3.595777508149293e-03
	3.594052899697177e-03
	3.646965439098275e-03
	3.645220115532172e-03
	4.251675900499088e-03
	4.249637381073550e-03
	4.321281846620458e-03
	4.323383743178514e-03
	2.149808544024826e-03
	2.147994537353188e-03
	2.191639998922160e-03
	2.189780189048724e-03
	4.625024658837514e-05
	4.624482649125650e-05
	1.453332672202878e-05
	1.452059723628747e-05
	1.120430639299490e-02

 32	6.032367686157209e+01
	2.777987044081522e-06
	4.995760487409607e-03
	4.993775179956117e-03
	4.997616486197586e-03
	4.995636551232502e-03
	3.486738569204244e-03
	3.484969726223498e-03
	3.536374054312847e-03
	3.534583964841216e-03
	4.122747354999724e-03
	4.120656549525009e-03
	4.190126532426859e-03
	4.192282340178571e-03
	2.084661225583711e-03
	2.082800710975571e-03
	2.125225617357529e-03
	2.123318125498245e-03
	4.484680799466054e-05
	4.484124881913094e-05
	1.409293813136991e-05
	1.407988229612652e-05
	1.086453524321194e-02

 33	6.380842850117577e+01
	2.701141883645187e-06
	4.842752932674118e-03
	4.840717326458299e-03
	4.844551744894262e-03
	4.842521647209856e-03
	3.379970002003563e-03
	3.378156350254016e-03
	3.428085362451788e-03
	3.426249925931011e-03
	3.996503315294648e-03
	3.994359545007094e-03
	4.061700291795880e-03
	4.063910710561672e-03
	2.020871059051502e-03
	2.018963434647769e-03
	2.060194792288693e-03
	2.058239001416654e-03
	4.347257679033087e-05
	4.346687672527648e-05
	1.366172413880664e-05
	1.364833773194328e-05
	1.053183853904165e-02

 34	6.749448574119215e+01
	2.626426720929905e-06
	4.692839457815833e-03
	4.690752990524218e-03
	4.694582235026720e-03
	4.692501413823396e-03
	3.275360785880251e-03
	3.273501824987359e-03
	3.321986762452345e-03
	3.320105472491188e-03
	3.872812509673066e-03
	3.870615183119479e-03
	3.935869728694679e-03
	3.938135368266382e-03
	1.958371658934039e-03
	1.956416400741618e-03
	1.996479846348759e-03
	1.994475219271464e-03
	4.212612518672386e-05
	4.212028265266449e-05
	1.323923595351772e-05
	1.322551529943373e-05
	1.020587034644180e-02

 35	7.139347751502841e+01
	2.553782638689396e-06
	4.545864105990845e-03
	4.543726312020975e-03
	4.547551941918345e-03
	4.545419932845184e-03
	3.172802065636456e-03
	3.170897381441121e-03
	3.217967849577411e-03
	3.216040287035157e-03
	3.751546226897330e-03
	3.749294854532697e-03
	3.812504065574292e-03
	3.814825430663412e-03
	1.897097928317552e-03
	1.895094603207808e-03
	1.934014415742952e-03
	1.931960508429084e-03
	4.080605337848609e-05
	4.080006706636280e-05
	1.282503349223371e-05
	1.281097555306535e-05
	9.886291480271307e-03

 36	7.551770453120336e+01
	2.483152352821400e-06
	4.401674613271614e-03
	4.399485138811693e-03
	4.403308545231813e-03
	4.401124995425409e-03
	3.072187560308983e-03
	3.070236838305231e-03
	3.115920830002887e-03
	3.113946676588408e-03
	3.632578799531025e-03
	3.630273009602096e-03
	3.691475636153670e-03
	3.693853110013810e-03
	1.836986302674831e-03
	1.834934582525751e-03
	1.872733698790999e-03
	1.870630174869784e-03
	3.951099481374010e-05
	3.950486372712328e-05
	1.241868702708042e-05
	1.240428950194603e-05
	9.572770778120365e-03

 37	7.988017808015671e+01
	2.414480167194451e-06
	4.260123133671971e-03
	4.257881752965593e-03
	4.261704144268029e-03
	4.259468828573159e-03
	2.973414068908615e-03
	2.971417108736919e-03
	3.015741033759394e-03
	3.013720086698532e-03
	3.515788201929669e-03
	3.513427757606330e-03
	3.572660494760714e-03
	3.575094321523443e-03
	1.777975051642913e-03
	1.775874728590836e-03
	1.812574763568981e-03
	1.810421409967116e-03
	3.823962271172491e-05
	3.823334621234236e-05
	1.201977922534312e-05
	1.200504065737387e-05
	9.264986676308783e-03

 38	8.449466108283298e+01
	2.347711929726703e-06
	4.121067113813371e-03
	4.118773746528352e-03
	4.122596132961763e-03
	4.120308971253212e-03
	2.876382080604190e-03
	2.874338811528238e-03
	2.917327533605484e-03
	2.915259721303706e-03
	3.401056771727706e-03
	3.398641589396814e-03
	3.455939151164839e-03
	3.458429416976979e-03
	1.720004643255478e-03
	1.717855645980201e-03
	1.753476919221287e-03
	1.751273662859320e-03
	3.699065792360393e-05
	3.698423577996289e-05
	1.162790761142907e-05
	1.161282750205066e-05
	8.962629111327830e-03

 39	8.937571151054203e+01
	2.282794989682184e-06
	3.984370324726905e-03
	3.982025054292468e-03
	3.985848232071253e-03
	3.983509307541344e-03
	2.780996494592178e-03
	2.778906991838038e-03
	2.820583875147669e-03
	2.818469273725471e-03
	3.288272061018487e-03
	3.285802229597055e-03
	3.341197437143518e-03
	3.343744050253406e-03
	1.663018173784367e-03
	1.660820584699965e-03
	1.695382154158751e-03
	1.693129079576027e-03
	3.576287820345188e-05
	3.575631064217532e-05
	1.124268747240325e-05
	1.122726640197242e-05
	8.665401763050910e-03

 40	9.453872831307899e+01
	2.219678156150786e-06
	3.849904053595257e-03
	3.847507146306507e-03
	3.851331681366718e-03
	3.848941259578088e-03
	2.687167451621300e-03
	2.685031953399759e-03
	2.725418920204654e-03
	2.723257770724363e-03
	3.177327819556010e-03
	3.174803620611936e-03
	3.228327507080912e-03
	3.230930177092060e-03
	1.606961864393715e-03
	1.604715937556258e-03
	1.638235642370227e-03
	1.635933010084811e-03
	3.455512891415387e-05
	3.454841667346900e-05
	1.086375521521599e-05
	1.084799496868669e-05
	8.373024645844081e-03

 41	9.999999999999956e+01
	2.158311657679234e-06
	3.717548451689427e-03
	3.715100376302869e-03
	3.718926588071009e-03
	3.716485136499091e-03
	2.594811274573103e-03
	2.592630199538960e-03
	2.631747800779580e-03
	2.629540526914347e-03
	3.068125106905209e-03
	3.065547035294480e-03
	3.117228969393057e-03
	3.119887185985321e-03
	1.551785623083858e-03
	1.549491802556656e-03
	1.581986316295559e-03
	1.579634581633208e-03
	3.336633513413033e-05
	3.335947951873638e-05
	1.049077216536655e-05
	1.047467586116545e-05
	8.085237039470753e-03

 42	1.057767560283171e+02
	2.098647103021183e-06
	3.587194026227627e-03
	3.584695473687469e-03
	3.588523419274987e-03
	3.586031626980935e-03
	2.503851509550124e-03
	2.501625474377339e-03
	2.539492974970050e-03
	2.537240200790116e-03
	2.960573523433106e-03
	2.957942308073959e-03
	3.007810138411515e-03
	3.010523149921100e-03
	1.497443666850032e-03
	1.495102605188323e-03
	1.526587501086676e-03
	1.524187333132240e-03
	3.219551505418571e-05
	3.218851799049303e-05
	1.012342877272201e-05
	1.010700099246069e-05
	7.801800733146107e-03

 43	1.118872211587417e+02
	2.040637442975486e-06
	3.458743253287404e-03
	3.456195156132041e-03
	3.460024615449827e-03
	3.457483412434497e-03
	2.414220051529713e-03
	2.411949888200864e-03
	2.448585368646802e-03
	2.446287936116631e-03
	2.854592541290948e-03
	2.851909165600332e-03
	2.899989387461068e-03
	2.902756179808794e-03
	1.443895194564705e-03
	1.441507770997033e-03
	1.471997600581524e-03
	1.469549900819344e-03
	3.104179445855294e-05
	3.103465854903247e-05
	9.761449160311480e-06
	9.744696076368410e-06
	7.522503533057537e-03

 44	1.183506729519463e+02
	1.984236933282509e-06
	3.332112276328393e-03
	3.329515827233659e-03
	3.333346289600224e-03
	3.330756865297271e-03
	2.325858329867357e-03
	2.323545102193122e-03
	2.358965577832901e-03
	2.356624563529110e-03
	2.750112906162657e-03
	2.747378627582572e-03
	2.793696573314753e-03
	2.796515849872797e-03
	1.391105095849394e-03
	1.388672433645963e-03
	1.418180819970561e-03
	1.415686740091260e-03
	2.990442197131133e-05
	2.989715054643358e-05
	9.404595916577951e-06
	9.387525413973287e-06
	7.247162956326932e-03

 45	1.251875025862523e+02
	1.929401098549227e-06
	3.207232640743425e-03
	3.204589309569222e-03
	3.208419962457403e-03
	3.205783782733813e-03
	2.238718519065237e-03
	2.236363537869506e-03
	2.270585096706588e-03
	2.268201827185486e-03
	2.647078068886920e-03
	2.644294436833507e-03
	2.688874490347753e-03
	2.691744653432756e-03
	1.339044675302979e-03
	1.336568157737008e-03
	1.365107904121926e-03
	1.362568862386637e-03
	2.878278462241734e-05
	2.877538178840781e-05
	9.052674991567435e-06
	9.035296779962306e-06
	6.975630003641473e-03

 46	1.324192791886038e+02
	1.876086697174625e-06
	3.084052999792990e-03
	3.081364548419892e-03
	3.085194269042646e-03
	3.082513090995239e-03
	2.152764729708132e-03
	2.150369566043054e-03
	2.183407525487707e-03
	2.180983590659109e-03
	2.545445593628704e-03
	2.542614465112686e-03
	2.585480300081313e-03
	2.588399434848618e-03
	1.287692365165921e-03
	1.285173649399128e-03
	1.312756864121425e-03
	1.310174559597688e-03
	2.767642315235658e-05
	2.766889383277061e-05
	8.705540515131069e-06
	8.687866226257510e-06
	6.707792870020070e-03

 47	1.400688178817862e+02
	1.824251687247733e-06
	2.962540712377924e-03
	2.959809206558727e-03
	2.963636557026305e-03
	2.960912440801278e-03
	2.067974124066939e-03
	2.065540619767341e-03
	2.097409701917729e-03
	2.094946965726207e-03
	2.445188476976901e-03
	2.442312029079114e-03
	2.483486869321073e-03
	2.486452730901713e-03
	1.237034393275686e-03
	1.234475421441405e-03
	1.261113658238224e-03
	1.258490082162690e-03
	2.658504634076721e-05
	2.657739630971443e-05
	8.363099313071187e-06
	8.345142578494518e-06
	6.443580420772012e-03

 48	1.481602517625655e+02
	1.773855193391363e-06
	2.842683239786368e-03
	2.839911057203879e-03
	2.843734283983716e-03
	2.840969600812697e-03
	1.984337891570010e-03
	1.981868166426650e-03
	2.012582690610988e-03
	2.010083298295341e-03
	2.346296301348250e-03
	2.343377039698572e-03
	2.382883938942198e-03
	2.385893943700842e-03
	1.187065367599106e-03
	1.184468374325113e-03
	1.210172787848987e-03
	1.207510231339898e-03
	2.550854352498245e-05
	2.550077942973618e-05
	8.025314859541592e-06
	8.007091363436732e-06
	6.182965230727843e-03

 49	1.567191080378300e+02
	1.724857474525389e-06
	2.724489238577298e-03
	2.721679072303738e-03
	2.725496110671894e-03
	2.722693546322068e-03
	1.901862012374843e-03
	1.899358467209640e-03
	1.928932557487928e-03
	1.926398938693425e-03
	2.248776137839116e-03
	2.245816900251457e-03
	2.283679037036691e-03
	2.286730258824187e-03
	1.137788734447836e-03
	1.135156250065024e-03
	1.159937764592217e-03
	1.157238821938742e-03
	2.444699438508697e-05
	2.443912375582540e-05
	7.692210375728909e-06
	7.673737877380520e-06
	5.925965963114577e-03

 50	1.657723885589308e+02
	1.677219892524122e-06
	2.607989242089151e-03
	2.605144098693572e-03
	2.608952582775706e-03
	2.606115135662457e-03
	1.820567734001999e-03
	1.818033048973883e-03
	1.846480853184064e-03
	1.843915720248025e-03
	2.152653109799453e-03
	2.149657064269257e-03
	2.185898046256105e-03
	2.188987218474860e-03
	1.089217065509355e-03
	1.086551914240407e-03
	1.110421403012107e-03
	1.107688969816881e-03
	2.340067503037589e-05
	2.339270627494416e-05
	7.363870771494164e-06
	7.345169092567684e-06
	5.672648854260359e-03

 51	1.753486550082949e+02
	1.630904881743013e-06
	2.493235825643490e-03
	2.490359017298556e-03
	2.494156296154626e-03
	2.491287269469787e-03
	1.740491687784131e-03
	1.737928815347738e-03
	1.765264731144948e-03
	1.762671071970952e-03