Title: simulation of the cascode gain stage designed with the sekv model
Date: Sun May  4 14:34:34  2025
Plotname: Noise Spectral Density Curves
Flags: real
No. Variables: 7
No. Points: 288
Variables:
	0	frequency	frequency grid=3
	1	inoise_spectrum	voltage-density
	2	onoise_n.x1.nsg13_lv_nmos	voltage-density
	3	onoise_n.x1.nsg13_lv_nmos_flicker	voltage-density
	4	onoise_n.x2.nsg13_lv_nmos	voltage-density
	5	onoise_n.x2.nsg13_lv_nmos_flicker	voltage-density
	6	onoise_spectrum	voltage-density
Values:
 0	1.000000000000000e+01
	7.835798504964417e-06
	1.411095819160192e-03
	1.411077254350395e-03
	3.956283865022458e-05
	3.956051039007419e-05
	1.411650321097061e-03

 1	1.057767560283176e+01
	7.618833254731826e-06
	1.372023755015873e-03
	1.372004661523217e-03
	3.846747824037680e-05
	3.846508367992078e-05
	1.372562906103043e-03

 2	1.118872211587422e+01
	7.407875876588515e-06
	1.334033592126487e-03
	1.334013954896180e-03
	3.740245113354905e-05
	3.739998838509538e-05
	1.334557817508367e-03

 3	1.183506729519469e+01
	7.202760018954667e-06
	1.297095371783076e-03
	1.297075175331731e-03
	3.636691745866385e-05
	3.636438458080408e-05
	1.297605084833795e-03

 4	1.251875025862529e+01
	7.003323936612960e-06
	1.261179964672052e-03
	1.261159193075499e-03
	3.536006059848988e-05
	3.535745559457368e-05
	1.261675567321381e-03

 5	1.324192791886044e+01
	6.809410363163504e-06
	1.226259047894589e-03
	1.226237684775337e-03
	3.438108654539965e-05
	3.437840736196642e-05
	1.226740930944829e-03

 6	1.400688178817868e+01
	6.620866387010564e-06
	1.192305082621019e-03
	1.192283111135376e-03
	3.342922327492935e-05
	3.342646780009570e-05
	1.192773626055121e-03

 7	1.481602517625661e+01
	6.437543330783301e-06
	1.159291292362515e-03
	1.159268695187330e-03
	3.250372013664430e-05
	3.250088619844616e-05
	1.159746865643651e-03

 8	1.567191080378307e+01
	6.259296634095411e-06
	1.127191641842793e-03
	1.127168401161833e-03
	3.160384726183048e-05
	3.160093262651879e-05
	1.127634604205635e-03

 9	1.657723885589316e+01
	6.085985739551257e-06
	1.095980816453139e-03
	1.095956913943083e-03
	3.072889498753907e-05
	3.072589735782751e-05
	1.096411517187066e-03

 10	1.753486550082957e+01
	5.917473981908575e-06
	1.065634202274407e-03
	1.065609619090435e-03
	2.987817329652661e-05
	2.987509030979040e-05
	1.066052980998857e-03

 11	1.854781190070612e+01
	5.753628480310339e-06
	1.036127866650198e-03
	1.036102583411187e-03
	2.905101127265038e-05
	2.904784049907469e-05
	1.036535053582393e-03

 12	1.961927374280116e+01
	5.594320033500850e-06
	1.007438539295628e-03
	1.007412536068924e-03
	2.824675657128053e-05
	2.824349551195725e-05
	1.007834455510876e-03

 13	2.075263132145055e+01
	5.439423017943385e-06
	9.795435939268270e-04
	9.795168502125964e-04
	2.746477490431011e-05
	2.746142098928157e-05
	9.799285516116105e-04

 14	2.195146020234697e+01
	5.288815288759057e-06
	9.524210303964303e-04
	9.523935251115656e-04
	2.670444953935551e-05
	2.670100012560387e-05
	9.527953330944679e-04

 15	2.321954250288978e+01
	5.142378083408818e-06
	9.260494573208386e-04
	9.260211687824200e-04
	2.596518081274080e-05
	2.596163318212169e-05
	9.264134001723302e-04

 16	2.456087882417323e+01
	4.999995928042607e-06
	9.004080751853946e-04
	9.003789810936891e-04
	2.524638565588595e-05
	2.524273701300498e-05
	9.007619451596259e-04

 17	2.597970087225643e+01
	4.861556546441807e-06
	8.754766599139195e-04
	8.754467373349068e-04
	2.454749713471168e-05
	2.454374460474242e-05
	8.758207360354123e-04

 18	2.748048480853338e+01
	4.726950771483226e-06
	8.512355468895112e-04
	8.512047722369244e-04
	2.386796400169871e-05
	2.386410462814065e-05
	8.515701004578962e-04

 19	2.906796537132123e+01
	4.596072459054755e-06
	8.276656154137391e-04
	8.276339644306103e-04
	2.320725026023807e-05
	2.320328100261329e-05
	8.279909102175245e-04

 20	3.074715081321829e+01
	4.468818404354846e-06
	8.047482735917526e-04
	8.047157213314478e-04
	2.256483474092289e-05
	2.256075247240984e-05
	8.050645661161541e-04

 21	3.252333870135678e+01
	4.345088260509798e-06
	7.824654436311060e-04
	7.824319644378409e-04
	2.194021068944138e-05
	2.193601219444448e-05
	7.827729832601024e-04

 22	3.440213263039755e+01
	4.224784459444679e-06
	7.607995475424538e-04
	7.607651150312762e-04
	2.133288536573612e-05
	2.132856733738966e-05
	7.610985767552256e-04

 23	3.638945990099384e+01
	4.107812134945466e-06
	7.397334932304999e-04
	7.396980802667276e-04
	2.074237965410662e-05
	2.073793869171164e-05
	7.400242477924038e-04

 24	3.849159021949671e+01
	3.994079047851778e-06
	7.192506609639080e-04
	7.192142396420099e-04
	2.016822768393656e-05
	2.016366029032935e-05
	7.195333701121371e-04

 25	4.071515547789678e+01
	3.883495513321162e-06
	6.993348902131468e-04
	6.992974318350563e-04
	1.960997646073779e-05
	1.960527903958859e-05
	6.996097768372201e-04

 26	4.306717067640506e+01
	3.775974330107617e-06
	6.799704668454561e-04
	6.799319418983047e-04
	1.906718550720743e-05
	1.906235436024812e-05
	6.802377476626783e-04

 27	4.555505605468010e+01
	3.671430711798546e-06
	6.611421106664781e-04
	6.611024887997399e-04
	1.853942651400439e-05
	1.853445783818391e-05
	6.614019963925069e-04

 28	4.818666050152228e+01
	3.569782219955967e-06
	6.428349632981480e-04
	6.427942133001817e-04
	1.802628299995454e-05
	1.802117288452091e-05
	6.430876588127980e-04

 29	5.097028631688890e+01
	3.470948699109201e-06
	6.250345763828976e-04
	6.249926661568793e-04
	1.752734998140504e-05
	1.752209440491293e-05
	6.252802808913127e-04

 30	5.391471540435050e+01
	3.374852213547822e-06
	6.077269001042274e-04
	6.076837966434643e-04
	1.704223365044848e-05
	1.703682847769138e-05
	6.079658072935436e-04

 31	5.702923697662158e+01
	3.281416985865003e-06
	5.908982720140349e-04
	5.908539413766507e-04
	1.657055106174844e-05
	1.656499204061463e-05
	5.911305702056547e-04

 32	6.032367686157209e+01
	3.190569337202804e-06
	5.745354061572018e-04
	5.744898134401893e-04
	1.611192982769839e-05
	1.610621258595011e-05
	5.747612784547978e-04

 33	6.380842850117577e+01
	3.102237629152273e-06
	5.586253824842249e-04
	5.585784917968589e-04
	1.566600782165757e-05
	1.566012786363298e-05
	5.588450069175843e-04

 34	6.749448574119215e+01
	3.016352207262559e-06
	5.431556365426956e-04
	5.431074109793035e-04
	1.523243288900337e-05
	1.522638559224109e-05
	5.433691862075167e-04

 35	7.139347751502841e+01
	2.932845346114472e-06
	5.281139494386994e-04
	5.280643510507874e-04
	1.481086256575214e-05
	1.480464317753846e-05
	5.283215926324445e-04

 36	7.551770453120336e+01
	2.851651195915209e-06
	5.134884380593554e-04
	5.134374278270924e-04
	1.440096380449957e-05
	1.439456743833885e-05
	5.136903384132652e-04

 37	7.988017808015671e+01
	2.772705730572083e-06
	4.992675455477215e-04
	4.992150833507843e-04
	1.400241270743713e-05
	1.399583433944612e-05
	4.994638621550869e-04

 38	8.449466108283298e+01
	2.695946697204355e-06
	4.854400320216050e-04
	4.853860766093911e-04
	1.361489426620429e-05
	1.360812873143175e-05
	4.856309195623944e-04

 39	8.937571151054203e+01
	2.621313567053338e-06
	4.719949655277240e-04
	4.719394744889459e-04
	1.323810210833752e-05
	1.323114409701088e-05
	4.721805743896588e-04

 40	9.453872831307899e+01
	2.548747487752053e-06
	4.589217132229084e-04
	4.588646429545835e-04
	1.287173825008322e-05
	1.286458230378483e-05
	4.591021896190739e-04

 41	9.999999999999956e+01
	2.478191236916810e-06
	4.462099327740273e-04
	4.461512384498859e-04
	1.251551285533969e-05
	1.250815336311574e-05
	4.463854188571062e-04

 42	1.057767560283171e+02
	2.409589177024119e-06
	4.338495639684244e-04
	4.337891995067641e-04
	1.216914400049763e-05
	1.216157519490383e-05
	4.340201979416359e-04

 43	1.118872211587417e+02
	2.342887211537345e-06
	4.218308205267225e-04
	4.217687385577440e-04
	1.183235744495051e-05
	1.182457339803944e-05
	4.219967367515453e-04

 44	1.183506729519463e+02
	2.278032742248501e-06
	4.101441821098196e-04
	4.100803339424889e-04
	1.150488640704385e-05
	1.149688102630019e-05
	4.103055112105756e-04

 45	1.251875025862523e+02
	2.214974627801560e-06
	3.987803865120193e-04
	3.987147221005092e-04
	1.118647134523747e-05
	1.117823836946848e-05
	3.989372554773912e-04

 46	1.324192791886038e+02
	2.153663143364560e-06
	3.877304220322121e-04
	3.876628899419900e-04
	1.087685974425249e-05
	1.086839273944263e-05
	3.878829543137638e-04

 47	1.400688178817862e+02
	2.094049941418712e-06
	3.769855200150081e-04
	3.769160673886491e-04
	1.057580590597381e-05
	1.056709826111423e-05
	3.771338356227759e-04

 48	1.481602517625655e+02
	2.036088013633583e-06
	3.665371475537481e-04
	3.664657200765667e-04
	1.028307074488198e-05
	1.027411566778757e-05
	3.666813631489640e-04

 49	1.567191080378300e+02
	1.979731653798292e-06
	3.563770003472811e-04
	3.563035422128960e-04
	9.998421587783469e-06
	9.989212100912250e-06
	3.565172293322906e-04

 50	1.657723885589308e+02
	1.924936421779496e-06
	3.464969957023872e-04
	3.464214495783508e-04
	9.721631977610840e-06
	9.712160913903549e-06
	3.466333483078168e-04

 51	1.753486550082949e+02
	1.871659108477725e-06
	3.368892656736590e-04
	3.368115726673087e-04
	9.452481481059819e-06
	9.442741479820203e-06
	3.370218490428877e-04

 52	1.854781190070604e+02
	1.819857701754449e-06
	3.275461503326519e-04
	3.274662499573682e-04
	9.190755499832008e-06
	9.180739002672016e-06
	3.276750686036365e-04

 53	1.961927374280108e+02
	1.769491353302998e-06
	3.184601911580370e-04
	3.183780213001218e-04
	8.936245085247531e-06
	8.925944332125616e-06
	3.185855455425388e-04

 54	2.075263132145047e+02
	1.720520346437213e-06
	3.096241245384845e-04
	3.095396214249133e-04
	8.688746755992936e-06
	8.678153781378206e-06
	3.097460133987405e-04

 55	2.195146020234688e+02
	1.672906064772429e-06
	3.010308753799626e-04
	3.009439735473014e-04
	8.448062318765561e-06
	8.437168947965892e-06
	3.011493943028416e-04

 56	2.321954250288969e+02
	1.626610961774074e-06
	2.926735508091171e-04
	2.925841830739459e-04
	8.213998691578352e-06
	8.202796537276508e-06
	2.927887926777973e-04

 57	2.456087882417313e+02
	1.581598531149904e-06
	2.845454339644127e-04
	2.844535313956488e-04
	7.986367729484071e-06
	7.974848188532912e-06
	2.846574890276145e-04

 58	2.597970087225632e+02
	1.537833278062487e-06
	2.766399778667735e-04
	2.765454697603517e-04
	7.764986052482799e-06
	7.753140303018430e-06
	2.767489338055779e-04

 59	2.748048480853327e+02
	1.495280691139262e-06
	2.689507993615386e-04
	2.688536132179757e-04
	7.549674875375422e-06
	7.537493874316276e-06
	2.690567413538163e-04

 60	2.906796537132111e+02
	1.453907215258083e-06
	2.614716731237091e-04
	2.613717346291613e-04
	7.340259839330723e-06
	7.327734320340719e-06
	2.615746839061851e-04

 61	3.074715081321816e+02
	1.413680225086792e-06
	2.541965257187150e-04
	2.540937587302293e-04
	7.136570844938141e-06
	7.123691316943864e-06
	2.542966856466874e-04

 62	3.252333870135664e+02
	1.374567999355951e-06
	2.471194297112812e-04
	2.470137562470467e-04
	6.938441886529116e-06
	6.925198632894208e-06
	2.472168168160119e-04

 63	3.440213263039740e+02
	1.336539695844450e-06
	2.402345978154486e-04
	2.401259380509733e-04
	6.745710887559411e-06
	6.732093966034467e-06
	2.403292878592388e-04

 64	3.638945990099369e+02
	1.299565327058247e-06
	2.335363770794986e-04
	2.334246493507726e-04
	6.558219536864508e-06
	6.544218780447908e-06
	2.336284436084602e-04

 65	3.849159021949655e+02
	1.263615736583073e-06
	2.270192431004139e-04
	2.269043639152741e-04
	6.375813125622381e-06
	6.361418144486766e-06
	2.271087574949449e-04

 66	4.071515547789662e+02
	1.228662576092447e-06
	2.206777942636271e-04
	2.205596783227099e-04
	6.198340384887471e-06
	6.183540569548463e-06
	2.207648257865973e-04

 67	4.306717067640488e+02
	1.194678282992864e-06
	2.145067460053811e-04
	2.143853062342474e-04
	6.025653323602002e-06
	6.010437849530230e-06
	2.145913618480327e-04

 68	4.555505605467993e+02
	1.161636058688528e-06
	2.085009250968380e-04
	2.083760726910708e-04
	5.857607067038777e-06
	5.841964900943875e-06
	2.085831904224045e-04

 69	4.818666050152210e+02
	1.129509847448478e-06
	2.026552639515412e-04
	2.025269084368640e-04
	5.694059695696943e-06
	5.677979603742885e-06
	2.027352419365883e-04

 70	5.097028631688870e+02
	1.098274315859452e-06
	1.969647949607809e-04
	1.968328442705168e-04
	5.534872084751047e-06
	5.518342642996508e-06
	1.970425468342739e-04

 71	5.391471540435030e+02
	1.067904832848265e-06
	1.914246448651415e-04
	1.912890054376372e-04
	5.379907744256808e-06
	5.362917351652130e-06
	1.915002299452465e-04

 72	5.702923697662137e+02
	1.038377450257955e-06
	1.860300291750511e-04
	1.858906060740224e-04
	5.229032660439902e-06
	5.211569554754142e-06
	1.861035049036806e-04

 73	6.032367686157186e+02
	1.009668883962367e-06
	1.807762466587012e-04
	1.806329437198283e-04
	5.082115138547736e-06
	5.064167415645034e-06
	1.808476686338229e-04

 74	6.380842850117552e+02
	9.817564955042757e-07
	1.756586739224580e-04
	1.755113939299518e-04
	4.939025647929410e-06
	4.920581284863744e-06
	1.757280959281905e-04

 75	6.749448574119189e+02
	9.546182742425612e-07
	1.706727601169111e-04
	1.705214050142089e-04
	4.799636670232105e-06
	4.780683552683054e-06
	1.707402341514469e-04

 76	7.139347751502813e+02
	9.282328199943596e-07
	1.658140218114190e-04
	1.656584929506237e-04
	4.663822551870865e-06
	4.644348506500118e-06
	1.658795981128272e-04

 77	7.551770453120307e+02
	9.025793261584782e-07
	1.610780380913564e-04
	1.609182365265183e-04
	4.531459362245397e-06
	4.511452194613635e-06
	1.611417651613391e-04

 78	7.988017808015640e+02
	8.776375633067662e-07
	1.564604459456960e-04
	1.562962727755367e-04
	4.402424759552261e-06
	4.381872298297838e-06
	1.565223705713965e-04

 79	8.449466108283265e+02
	8.533878632304929e-07
	1.519569360281055e-04
	1.517882927942901e-04
	4.276597866476033e-06
	4.255488014519105e-06
	1.520171033020998e-04

 80	8.937571151054169e+02
	8.298111034291373e-07
	1.475632488926280e-04
	1.473900380401846e-04
	4.153859158546810e-06
	4.132179952143273e-06
	1.476217022312666e-04

 81	9.453872831307864e+02
	8.068886920293476e-07
	1.432751718253560e-04
	1.430972972323102e-04
	4.034090368523795e-06
	4.011830045049809e-06
	1.433319529856714e-04

 82	9.999999999999918e+02
	7.846025531221668e-07
	1.390885364162362e-04
	1.389059039999297e-04
	3.917174410809097e-06
	3.894321486205651e-06
	1.391436855116873e-04

 83	1.057767560283167e+03
	7.629351125069449e-07
	1.349992170402054e-04
	1.348117354480812e-04
	3.802995330607704e-06
	3.779538687450908e-06
	1.350527725555944e-04

 84	1.118872211587413e+03
	7.418692838306815e-07
	1.310031304438031e-04
	1.308107118366038e-04
	3.691438283319255e-06
	3.667367270500187e-06
	1.310551292497766e-04

 85	1.183506729519459e+03
	7.213884551118570e-07
	1.270962366616256e-04
	1.268987975969278e-04
	3.582389550458154e-06
	3.557694095448871e-06
	1.271467140292630e-04

 86	1.251875025862518e+03
	7.014764756380980e-07
	1.232745415154807e-04
	1.230720039391880e-04
	3.475736599224252e-06
	3.450407333865462e-06
	1.233235311315693e-04

 87	1.324192791886034e+03
	6.821176432273344e-07
	1.195341009762778e-04
	1.193263933290529e-04
	3.371368193641809e-06
	3.345396594302391e-06
	1.195816349599891e-04

 88	1.400688178817857e+03
	6.632966918423765e-07
	1.158710276924963e-04
	1.156580861370261e-04
	3.269174565896499e-06
	3.242553108713833e-06
	1.159171366142968e-04

 89	1.481602517625649e+03
	6.449987795491254e-07
	1.122815000065871e-04
	1.120632697799420e-04
	3.169047657043939e-06
	3.141769988743578e-06
	1.123262129103524e-04

 90	1.567191080378294e+03
	6.272094768088928e-07
	1.087617737883424e-04
	1.085382106813902e-04
	3.070881436544426e-06
	3.042942561043831e-06
	1.088051182177744e-04

 91	1.657723885589302e+03
	6.099147550955746e-07
	1.053081974073734e-04
	1.050792693701347e-04
	2.974572309960288e-06
	2.945968790569483e-06
	1.053501994379579e-04

 92	1.753486550082943e+03
	5.931009758286695e-07
	1.019172301401288e-04
	1.016829190079862e-04
	2.880019623491541e-06
	2.850749800019641e-06
	1.019579144179974e-04

 93	1.854781190070597e+03
	5.767548796133880e-07
	9.858546425403943e-05
	9.834576758474913e-05
	2.787126272639284e-06
	2.757190492087976e-06
	9.862485404320821e-05

 94	1.961927374280101e+03
	5.608635757793272e-07
	9.530965092576083e-05
	9.506458393119497e-05
	2.695799419988684e-06
	2.665200278754137e-06
	9.534776816529684e-05

 95	2.075263132145039e+03
	5.454145322094303e-07
	9.208673002549177e-05
	9.183632757494423e-05
	2.605951323701480e-06
	2.574693918313580e-06
	9.212359539818944e-05

 96	2.195146020234680e+03
	5.303955654511667e-07
	8.891386362905861e-05
	8.865818229284577e-05
	2.517500273630662e-06
	2.485592456041229e-06
	8.894949664317704e-05

 97	2.321954250288960e+03
	5.157948311020910e-07
	8.578847289999264e-05
	8.552759299312931e-05
	2.430371625896659e-06
	2.397824258207750e-06
	8.582289198548797e-05

 98	2.456087882417304e+03
	5.016008144621543e-07
	8.270827771443175e-05
	8.244230529066021e-05
	2.344498919261572e-06
	2.311326121598453e-06
	8.274150033489838e-05

 99	2.597970087225624e+03
	4.878023214453449e-07
	7.967133808660161e-05
	7.940040682343952e-05
	2.259825047812042e-06
	2.226044431849526e-06
	7.970338086779189e-05

 100	2.748048480853317e+03
	4.743884697434344e-07
	7.667609610266038e-05
	7.640036900902536e-05
	2.176303454594602e-06
	2.141936334117494e-06
	7.670697497796984e-05

 101	2.906796537132101e+03
	4.613486802348052e-07
	7.372141670476598e-05
	7.344108757490661e-05
	2.093899300459473e-06
	2.058970869375730e-06
	7.375114707744018e-05

 102	3.074715081321806e+03
	4.486726686315179e-07
	7.080662531333076e-05
	7.052191984516667e-05
	2.012590552226975e-06
	1.977130019771287e-06
	7.083522223437523e-05

 103	3.252333870135653e+03
	4.363504373579628e-07
	6.793153997051563e-05
	6.764271646407126e-05
	1.932368925425303e-06
	1.896409598017202e-06
	6.795901833038580e-05

 104	3.440213263039729e+03
	4.243722676546179e-07
	6.509649547628054e-05
	6.480384502970079e-05
	1.853240610496846e-06
	1.816819909977301e-06
	6.512287020743026e-05

 105	3.638945990099357e+03
	4.127287119006038e-07
	6.230235691761738e-05
	6.200620304517726e-05
	1.775226708887951e-06
	1.738386117762586e-06
	6.232764320394391e-05

 106	3.849159021949642e+03
	4.014105861488960e-07
	5.955052010769618e-05
	5.925121771689996e-05
	1.698363308130869e-06
	1.661148234074590e-06
	5.957473359590903e-05

 107	4.071515547789648e+03
	3.904089628682123e-07
	5.684289679067673e-05
	5.654083047421742e-05
	1.622701133950676e-06
	1.585160688203838e-06
	5.686605379772410e-05

 108	4.306717067640474e+03
	3.797151638857547e-07
	5.418188304797659e-05
	5.387746467067614e-05
	1.548304733144859e-06
	1.510491420512363e-06
	5.420400075798180e-05

 109	4.555505605467977e+03
	3.693207535251273e-07
	5.157031015485496e-05
	5.126397574477805e-05
	1.475251163327435e-06
	1.437220485156684e-06
	5.159140679864076e-05

 110	4.818666050152194e+03
	3.592175319339049e-07
	4.901137814295652e-05
	4.870358412807355e-05
	1.403628193564053e-06
	1.365438169120703e-06
	4.903147315324765e-05

 111	5.097028631688853e+03
	3.493975285954655e-07
	4.650857345286361e-05
	4.619979231774425e-05
	1.333532051483756e-06
	1.295242667289224e-06
	4.652768758871156e-05

 112	5.391471540435012e+03
	3.398529960198339e-07
	4.406557321074701e-05
	4.375628867921106e-05
	1.265064784871886e-06
	1.226737385488831e-06
	4.408372864563101e-05

 113	5.702923697662118e+03
	3.305764036084183e-07
	4.168613971750252e-05
	4.137684159423402e-05
	1.198331335745298e-06
	1.160027972858059e-06
	4.170336008689672e-05

 114	6.032367686157166e+03
	3.215604316876450e-07
	3.937400957838147e-05
	3.906518840273147e-05
	1.133436449130540e-06
	1.095219208255968e-06
	3.939031998426381e-05

 115	6.380842850117531e+03
	3.127979657066240e-07
	3.713278242373344e-05
	3.682492410034215e-05
	1.070481554284184e-06
	1.032411879822815e-06
	3.714820939542564e-05

 116	6.749448574119167e+03
	3.042820905940872e-07
	3.496581430841277e-05
	3.465939488073945e-05
	1.009561760906344e-06
	9.716998003666556e-07
	3.498038572113647e-05

 117	7.139347751502790e+03
	2.960060852699660e-07
	3.287612060585105e-05
	3.257160133006159e-05
	9.507631062679449e-07
	9.131670933535645e-07
	3.288986556030146e-05

 118	7.551770453120283e+03
	2.879634173070731e-07
	3.086629256045945e-05
	3.056411541924461e-05
	8.941601717778080e-07
	8.568858657314365e-07
	3.087924122838299e-05

 119	7.988017808015614e+03
	2.801477377384648e-07
	2.893843070266993e-05
	2.863901447319227e-05
	8.398141613403652e-07
	8.029143567109289e-07
	2.895061414476069e-05

 120	8.449466108283237e+03
	2.725528760061622e-07
	2.709409717234574e-05
	2.679783413201193e-05
	7.877715018602640e-07
	7.512956190018511e-07
	2.710554713566315e-05

 121	8.937571151054139e+03
	2.651728350469992e-07
	2.533428776283953e-05
	2.504154108364924e-05
	7.380629918939889e-07
	7.020567543541617e-07
	2.534503646535874e-05

 122	9.453872831307832e+03
	2.580017865114692e-07
	2.365942331185571e-05
	2.337052516134119e-05
	6.907034911607684e-07
	6.552086920047312e-07
	2.366950322170458e-05

 123	9.999999999999884e+03
	2.510340661115201e-07
	2.206935902998217e-05
	2.178460936655480e-05
	6.456921143404840e-07
	6.107464696773088e-07
	2.207880264644750e-05

 124	1.057767560283163e+04
	2.442641690933452e-07
	2.056340954679007e-05
	2.028307557144447e-05
	6.030128694179080e-07
	5.686499541683879e-07
	2.057224918937403e-05

 125	1.118872211587409e+04
	2.376867458312888e-07
	1.914038690615241e-05
	1.886470311209425e-05
	5.626356649209454e-07
	5.288849233349873e-07
	1.914865451692760e-05

 126	1.183506729519455e+04
	2.312965975390741e-07
	1.779864846144415e-05
	1.752781720879857e-05
	5.245176019362072e-07
	4.914044235901062e-07
	1.780637542479684e-05

 127	1.251875025862514e+04
	2.250886720946304e-07
	1.653615158407931e-05
	1.627034411831687e-05
	4.886044651666830e-07
	4.561503161336291e-07
	1.654336856674086e-05

 128	1.324192791886029e+04
	2.190580599748737e-07
	1.535051226256983e-05
	1.508987009211727e-05
	4.548323313659285e-07
	4.230549298867226e-07
	1.535724907569590e-05

 129	1.400688178817852e+04
	2.131999902968652e-07
	1.423906498101913e-05
	1.398370153086065e-05
	4.231292217857824e-07
	3.920427479636066e-07
	1.424535046504699e-05

 130	1.481602517625644e+04
	2.075098269618379e-07
	1.319892167100554e-05
	1.294892413393088e-05
	3.934167362917894e-07
	3.630320659688057e-07
	1.320478360313921e-05

 131	1.567191080378288e+04
	2.019830648986536e-07
	1.222702797910421e-05
	1.198245929359892e-05
	3.656116191303215e-07
	3.359365730457858e-07
	1.223249300256658e-05

 132	1.657723885589296e+04
	1.966153264033092e-07
	1.132021554244311e-05
	1.108111643508769e-05
	3.396272188067942e-07
	3.106668192662078e-07
	1.132530911609590e-05

 133	1.753486550082936e+04
	1.914023575711840e-07
	1.047524938578763e-05
	1.024164042561254e-05
	3.153748162752227e-07
	2.871315447745299e-07
	1.047999575234574e-05

 134	1.854781190070590e+04
	1.863400248187729e-07
	9.688869925353576e-06
	9.460753547222382e-06
	2.927648060598388e-07
	2.652388565250932e-07
	9.693292096191483e-06

 135	1.961927374280093e+04
	1.814243114917212e-07
	8.957829375919629e-06
	8.735191839190763e-06
	2.717077237057775e-07
	2.448972471657101e-07
	8.961949130362770e-06

 136	2.075263132145032e+04
	1.766513145560308e-07
	8.278922605509662e-06
	8.061735862622052e-06
	2.521151199791901e-07
	2.260164575442648e-07
	8.282760502498007e-06

 137	2.195146020234672e+04
	1.720172413693771e-07
	7.649012668174948e-06
	7.437236125216940e-06
	2.339002875567046e-07
	2.085081895092630e-07
	7.652588068256382e-06

 138	2.321954250288952e+04
	1.675184065295350e-07
	7.065051376119954e-06
	6.858633533785715e-06
	2.169788497143951e-07
	1.922866793099055e-07
	7.068382471855766e-06

 139	2.456087882417295e+04
	1.631512287969826e-07
	6.524095355492119e-06
	6.322975324101034e-06
	2.012692229611973e-07
	1.772691442003223e-07
	6.527199208517023e-06

 140	2.597970087225613e+04
	1.589122280888158e-07
	6.023318074259810e-06
	5.827426960766148e-06
	1.866929668980661e-07
	1.633761160604384e-07
	6.026210657419314e-06

 141	2.748048480853306e+04
	1.547980225411830e-07
	5.560018344244688e-06
	5.369280512487954e-06
	1.731750350574887e-07
	1.505316762024339e-07
	5.562714587420840e-06

 142	2.906796537132089e+04
	1.508053256375236e-07
	5.131625790339336e-06
	4.945959998291696e-06
	1.606439403043089e-07
	1.386636052554923e-07
	5.134139628762769e-06

 143	3.074715081321794e+04
	1.469309433999761e-07
	4.735703754972922e-06
	4.555024174547320e-06
	1.490318477468579e-07
	1.277034613019731e-07
	4.738048178998128e-06

 144	3.252333870135640e+04
	1.431717716414106e-07
	4.369950070570694e-06
	4.194167196778843e-06
	1.382746071737455e-07
	1.175865984316766e-07
	4.372137176058165e-06

 145	3.440213263039715e+04
	1.395247932756341e-07
	4.032196091527615e-06
	3.861217548530067e-06
	1.283117359217361e-07
	1.082521367118694e-07
	4.034237130128300e-06

 146	3.638945990099342e+04
	1.359870756834244e-07
	3.720404333472832e-06
	3.554135585442207e-06
	1.190863618899567e-07
	9.964289333382460e-08
	3.722309762245965e-06

 147	3.849159021949627e+04
	1.325557681321545e-07
	3.432665023820656e-06
	3.271009998629344e-06
	1.105451352162215e-07
	9.170528346115333e-08
	3.434444553735238e-06

 148	4.071515547789632e+04
	1.292280992468995e-07
	3.167191825510004e-06
	3.010053459127955e-06
	1.026381159719766e-07
	8.438919811898639e-08
	3.168854468483472e-06

 149	4.306717067640457e+04
	1.260013745310480e-07
	2.922316956547067e-06
	2.769597665753866e-06
	9.531864414602186e-08
	7.764786535728625e-08
	2.923871070762928e-06

 150	4.555505605467959e+04
	1.228729739345878e-07
	2.696485892137561e-06
	2.548087982764781e-06
	8.854319719301889e-08
	7.143769991407078e-08
	2.697939225458213e-06

 151	4.818666050152174e+04
	1.198403494683938e-07
	2.488251804128017e-06
	2.344077821591753e-06
	8.227123953044529e-08
	6.571814570344723e-08
	2.489611535481029e-06

 152	5.097028631688833e+04
	1.169010228630225e-07
	2.296269864223675e-06
	2.156222892613373e-06
	7.646506757928971e-08
	6.045151466019773e-08
	2.297542642890818e-06

 153	5.391471540434990e+04
	1.140525832706999e-07
	2.119291512894498e-06
	1.983275428375861e-06
	7.108965325692055e-08
	5.560282478383565e-08
	2.120483495674238e-06

 154	5.702923697662095e+04
	1.112926850093961e-07
	1.956158774792450e-06
	1.824078458576288e-06
	6.611248823925180e-08
	5.113963963387815e-08
	1.957275661039774e-06

 155	6.032367686157142e+04
	1.086190453480938e-07
	1.805798683589536e-06
	1.677560199227177e-06
	6.150343080588025e-08
	4.703191102626869e-08
	1.806845748162967e-06

 156	6.380842850117506e+04
	1.060294423325905e-07
	1.667217864083900e-06
	1.542728603381713e-06
	5.723455665759424e-08
	4.325182625926311e-08
	1.668199988249692e-06

 157	6.749448574119140e+04
	1.035217126514168e-07
	1.539497306880900e-06
	1.418666108286850e-06
	5.328001474154008e-08
	3.977366084630517e-08
	1.540419007239395e-06

 158	7.139347751502763e+04
	1.010937495417147e-07
	1.421787360616644e-06
	1.304524603523863e-06
	4.961588882664775e-08
	3.657363744443640e-08
	1.422652816126725e-06

 159	7.551770453120254e+04
	9.874350073518501e-08
	1.313302958251833e-06
	1.199520636289280e-06
	4.622006533234093e-08
	3.362979143109541e-08
	1.314116035436879e-06

 160	7.988017808015585e+04
	9.646896644449340e-08
	1.213319087147635e-06
	1.102930863186144e-06
	4.307210771948444e-08
	3.092184339200463e-08
	1.214083363571122e-06

 161	8.449466108283207e+04
	9.426819739080981e-08
	1.121166507194592e-06
	1.014087752487269e-06
	4.015313759704317e-08
	2.843107863120893e-08
	1.121885293295981e-06

 162	8.937571151054108e+04
	9.213929287344488e-08
	1.036227716980307e-06
	9.323755365778398e-07
	3.744572257495385e-08
	2.614023369506187e-08
	1.036904076362602e-06

 163	9.453872831307798e+04
	9.008039888283476e-08
	9.579331646597840e-07
	8.572264109920304e-07
	3.493377079787743e-08
	2.403338980964303e-08
	9.585699329194858e-07

 164	9.999999999999849e+04
	8.808970625841312e-08
	8.857576976675866e-07
	7.881169739607443e-07
	3.260243202116264e-08
	2.209587306106812e-08
	8.863574998560561e-07

 165	1.057767560283160e+05
	8.616544889318093e-08
	8.192172435409241e-07
	7.245648985425042e-07
	3.043800503552260e-08
	2.031416109642744e-08
	8.197825103436474e-07

 166	1.118872211587405e+05
	8.430590198704986e-08
	7.578657127863636e-07
	6.661258280958793e-07
	2.842785120720179e-08
	1.867579608625340e-08
	7.583986955035206e-07

 167	1.183506729519450e+05
	8.250938035127087e-08
	7.012921138176910e-07
	6.123904849673090e-07
	2.656031387294486e-08
	1.716930366462952e-08
	7.017948982259095e-07

 168	1.251875025862510e+05
	8.077423676647746e-08
	6.491178694329320e-07
	5.629819817272058e-07
	2.482464331141161e-08
	1.578411754787583e-08
	6.495923886043368e-07

 169	1.324192791886024e+05
	7.909886039704937e-08
	6.009943240131076e-07
	5.175533240183728e-07
	2.321092700286059e-08
	1.451050952521825e-08
	6.014423701638456e-07
