Title: simulation of the miller ota designed with the sekv model
Date: Thu May 22 16:29:52  2025
Plotname: Noise Spectral Density Curves
Flags: real
No. Variables: 17
No. Points: 329
Variables:
	0	frequency	frequency grid=3
	1	inoise_spectrum	voltage-density
	2	onoise_n.x1a.nsg13_lv_nmos	voltage-density
	3	onoise_n.x1a.nsg13_lv_nmos_flicker	voltage-density
	4	onoise_n.x1b.nsg13_lv_nmos	voltage-density
	5	onoise_n.x1b.nsg13_lv_nmos_flicker	voltage-density
	6	onoise_n.x2.nsg13_lv_pmos	voltage-density
	7	onoise_n.x2.nsg13_lv_pmos_flicker	voltage-density
	8	onoise_n.x4a.nsg13_lv_pmos	voltage-density
	9	onoise_n.x4a.nsg13_lv_pmos_flicker	voltage-density
	10	onoise_n.x4b.nsg13_lv_pmos	voltage-density
	11	onoise_n.x4b.nsg13_lv_pmos_flicker	voltage-density
	12	onoise_n.x5a.nsg13_lv_nmos	voltage-density
	13	onoise_n.x5a.nsg13_lv_nmos_flicker	voltage-density
	14	onoise_n.x5b.nsg13_lv_nmos	voltage-density
	15	onoise_n.x5b.nsg13_lv_nmos_flicker	voltage-density
	16	onoise_spectrum	voltage-density
Values:
 0	1.000000000000000e+00
	1.378129031709363e-05
	7.216925150880527e-03
	7.214976187141679e-03
	6.788320253136656e-03
	6.786218341343810e-03
	9.177574287477175e-04
	9.177535160066762e-04
	2.966441137068324e-02
	2.966416685899564e-02
	3.376965073178825e-02
	3.376937189541387e-02
	2.042933096078293e-04
	2.042901293119214e-04
	2.078865357110721e-04
	2.078833003499493e-04
	4.611055580612584e-02

 1	1.057767560283176e+00
	1.339970667525275e-05
	7.017196410348295e-03
	7.015191960139795e-03
	6.600468260573867e-03
	6.598306510393123e-03
	8.923447499506053e-04
	8.923407257839932e-04
	2.884301123665895e-02
	2.884275976188820e-02
	3.283457757361154e-02
	3.283429079667263e-02
	1.986365630056431e-04
	1.986332921435298e-04
	2.021302950060641e-04
	2.021269675106275e-04
	4.483379960380029e-02

 2	1.118872211587422e+00
	1.302868944442890e-05
	6.823000904081515e-03
	6.820939388771667e-03
	6.417820901192708e-03
	6.415597610394123e-03
	8.676357074782429e-04
	8.676315687132037e-04
	2.804435454377682e-02
	2.804409590765084e-02
	3.192539530721254e-02
	3.192510036360351e-02
	1.931364463392451e-04
	1.931330823321369e-04
	1.965334391325727e-04
	1.965300168793823e-04
	4.359239598208049e-02

 3	1.183506729519469e+00
	1.266794605697988e-05
	6.634185479359990e-03
	6.632065275504181e-03
	6.240234129693361e-03
	6.237947547744545e-03
	8.436108145136808e-04
	8.436065578870513e-04
	2.726781143043342e-02
	2.726754542903709e-02
	3.104138690485549e-02
	3.104108356203550e-02
	1.877886219347612e-04
	1.877851621304786e-04
	1.910915541232275e-04
	1.910880344141825e-04
	4.238536590642640e-02

 4	1.251875025862529e+00
	1.231719204675798e-05
	6.450601224301598e-03
	6.448420662380185e-03
	6.067567889769264e-03
	6.065216216476659e-03
	8.202511235216502e-04
	8.202467456773957e-04
	2.651276946608006e-02
	2.651249588969492e-02
	3.018185518213222e-02
	3.018154320094245e-02
	1.825888721628728e-04
	1.825853138337622e-04
	1.858003481666246e-04
	1.857967282268435e-04
	4.121175743728400e-02

 5	1.324192791886045e+00
	1.197615082479265e-05
	6.272103350291438e-03
	6.269860713413147e-03
	5.899686003527540e-03
	5.897267387640727e-03
	7.975382112890987e-04
	7.975337087756762e-04
	2.577863316769624e-02
	2.577835180063583e-02
	2.934612224752063e-02
	2.934580138199644e-02
	1.775330961089106e-04
	1.775294364497033e-04
	1.806556482188528e-04
	1.806519251944950e-04
	4.007064497850911e-02

 6	1.400688178817868e+00
	1.164455346118476e-05
	6.098551077649559e-03
	6.096244600219565e-03
	5.736456063955709e-03
	5.733968601733865e-03
	7.754541643775764e-04
	7.754495336452247e-04
	2.506482352957533e-02
	2.506453415001582e-02
	2.853352896709767e-02
	2.853319896427550e-02
	1.726173063346286e-04
	1.726135424602387e-04
	1.756533967083117e-04
	1.756495676643375e-04
	3.896112854648384e-02

 7	1.481602517625661e+00
	1.132213847304048e-05
	5.929807524446014e-03
	5.927435390797896e-03
	5.577749330348744e-03
	5.575191064088381e-03
	7.539815649758597e-04
	7.539768023738135e-04
	2.437077756604694e-02
	2.437047994585308e-02
	2.774343444397952e-02
	2.774309504369839e-02
	1.678376257290709e-04
	1.678337546723325e-04
	1.707896483311890e-04
	1.707857102490574e-04
	3.788233305934208e-02

 8	1.567191080378307e+00
	1.100865161827747e-05
	5.765739598374298e-03
	5.763299941365026e-03
	5.423440626612881e-03
	5.420809543136005e-03
	7.331034771415095e-04
	7.330985789151356e-04
	2.369594786677065e-02
	2.369564177131684e-02
	2.697521551207256e-02
	2.697486644677002e-02
	1.631902844460143e-04
	1.631863031553551e-04
	1.660605669350380e-04
	1.660565167103402e-04
	3.683340764573576e-02

 9	1.657723885589316e+00
	1.070384569514092e-05
	5.606217891596646e-03
	5.603708791163772e-03
	5.273408242364741e-03
	5.270702271466543e-03
	7.128034334203384e-04
	7.127983957081924e-04
	2.303980216424494e-02
	2.303948735223140e-02
	2.622826624373020e-02
	2.622790723823270e-02
	1.586716169255355e-04
	1.586675222625865e-04
	1.614624224879582e-04
	1.614582569279857e-04
	3.581352497258889e-02

 10	1.753486550082957e+00
	1.040748034727126e-05
	5.451116578476702e-03
	5.448536060156947e-03
	5.127533836746359e-03
	5.124750849601603e-03
	6.930654218330650e-04
	6.930602406638659e-04
	2.240182291318450e-02
	2.240149913644821e-02
	2.550199747092052e-02
	2.550162824222781e-02
	1.542780589973143e-04
	1.542738477344522e-04
	1.569915881309488e-04
	1.569873039521937e-04
	3.482188059129960e-02

 11	1.854781190070612e+00
	1.011932187416981e-05
	5.300313316117427e-03
	5.297659349525821e-03
	4.985702344878815e-03
	4.982840152406043e-03
	6.738738732186864e-04
	6.738685445082090e-04
	2.178150688142765e-02
	2.178117388474819e-02
	2.479583631951963e-02
	2.479545657658332e-02
	1.500061450633415e-04
	1.500018138811645e-04
	1.526445373110661e-04
	1.526401311366527e-04
	3.385769230186504e-02

 12	1.961927374280117e+00
	9.839143046912972e-06
	5.153689147624046e-03
	5.150959644892847e-03
	4.847801886879039e-03
	4.844858238061780e-03
	6.552136489243867e-04
	6.552081684722664e-04
	2.117836475204477e-02
	2.117802227294471e-02
	2.410922575635611e-02
	2.410883519985210e-02
	1.458525053577679e-04
	1.458480508425012e-04
	1.484178409930757e-04
	1.484133093501213e-04
	3.292019953441701e-02

 13	2.075263132145056e+00
	9.566722928969603e-06
	5.011128408013873e-03
	5.008321222190447e-03
	4.713723679366282e-03
	4.710696259530432e-03
	6.370700288320281e-04
	6.370643923184790e-04
	2.059192073632593e-02
	2.059156850486589e-02
	2.344162414864032e-02
	2.344122247073499e-02
	1.418138632816757e-04
	1.418092819225061e-04
	1.443081649473472e-04
	1.443035042642505e-04
	3.200866274766864e-02

 14	2.195146020234698e+00
	9.301846701980304e-06
	4.872518632696785e-03
	4.869631556099711e-03
	4.583361949386570e-03
	4.580248378433161e-03
	6.194286997115408e-04
	6.194229026939846e-04
	2.002171219733494e-02
	2.002134993590285e-02
	2.279250483542229e-02
	2.279209171953231e-02
	1.378870328106194e-04
	1.378823209969577e-04
	1.403122671117965e-04
	1.403074737154527e-04
	3.112236284378534e-02

 15	2.321954250288979e+00
	9.044305496361200e-06
	4.737750468451990e-03
	4.734781230984621e-03
	4.456613850685103e-03
	4.453411681277707e-03
	6.022757438917492e-04
	6.022697818013517e-04
	1.946728928372360e-02
	1.946691670681843e-02
	2.216135571072980e-02
	2.216093083127538e-02
	1.340689159728271e-04
	1.340640699914953e-04
	1.364269950257338e-04
	1.364220651386728e-04
	3.026060059920470e-02

 16	2.456087882417324e+00
	8.793896226598652e-06
	4.606717586828407e-03
	4.603663854249210e-03
	4.333379382258357e-03
	4.330086097964402e-03
	5.855976282394016e-04
	5.855914963775157e-04
	1.892821457350801e-02
	1.892783138751757e-02
	2.154767881804717e-02
	2.154724184019872e-02
	1.303565003960097e-04
	1.303515164283532e-04
	1.326492833335229e-04
	1.326442130709721e-04
	2.942269611094139e-02

 17	2.597970087225644e+00
	8.550421431105065e-06
	4.479316599897799e-03
	4.476175972046801e-03
	4.213561309119133e-03
	4.210174322504482e-03
	5.693811934373881e-04
	5.693748869719014e-04
	1.840406272751557e-02
	1.840366863048831e-02
	2.095098995580294e-02
	2.095054053522084e-02
	1.267468569207692e-04
	1.267417310396914e-04
	1.289761513560138e-04
	1.289709367228806e-04
	2.860798825792429e-02

 18	2.748048480853339e+00
	8.313689116509432e-06
	4.355446978291332e-03
	4.352216987272089e-03
	4.097065085209393e-03
	4.093581735885580e-03
	5.536136435533435e-04
	5.536071575149290e-04
	1.789442015221779e-02
	1.789401483362860e-02
	2.037081829354240e-02
	2.037035607610990e-02
	1.232371372786473e-04
	1.232318654455650e-04
	1.254047007277516e-04
	1.253993376155265e-04
	2.781583417692319e-02

 19	2.906796537132124e+00
	8.083512606259865e-06
	4.235010971451857e-03
	4.231689079768382e-03
	3.983798778397126e-03
	3.980216331020725e-03
	5.382825358900225e-04
	5.382758651682887e-04
	1.739888467167086e-02
	1.739846781218064e-02
	1.980670599846821e-02
	1.980623062001729e-02
	1.198245718328972e-04
	1.198191498946159e-04
	1.219321130980108e-04
	1.219265972815888e-04
	2.704560875263268e-02

 20	3.074715081321830e+00
	7.859710393418773e-06
	4.117913530035606e-03
	4.114497128683826e-03
	3.873672997494950e-03
	3.869988639718654e-03
	5.233757711090298e-04
	5.233689104485722e-04
	1.691706520829183e-02
	1.691663647950077e-02
	1.925820787203944e-02
	1.925771895806941e-02
	1.165064673801047e-04
	1.165008910656126e-04
	1.185556478937510e-04
	1.185499750281695e-04
	2.629670412149024e-02

 21	3.252333870135678e+00
	7.642105997534500e-06
	4.004062230398462e-03
	4.000548636911829e-03
	3.766600821239360e-03
	3.762811661614432e-03
	5.088815836196674e-04
	5.088745276160150e-04
	1.644858147220391e-02
	1.644814053639842e-02
	1.872489099632561e-02
	1.872438816171450e-02
	1.132802050108242e-04
	1.132744699280027e-04
	1.152726401426237e-04
	1.152668057597167e-04
	2.556852918881430e-02

 22	3.440213263039755e+00
	7.430527825476657e-06
	3.893367201103261e-03
	3.889753657552269e-03
	3.662497729170877e-03
	3.658600795000788e-03
	4.947885322248287e-04
	4.947812753202892e-04
	1.599306365889043e-02
	1.599261016878349e-02
	1.820633438981904e-02
	1.820581723852760e-02
	1.101432380274341e-04
	1.101373396596850e-04
	1.120804983542066e-04
	1.120744978591729e-04
	2.486050915885722e-02

 23	3.638945990099385e+00
	7.224809036125389e-06
	3.785741051385826e-03
	3.782024722331313e-03
	3.561281534356476e-03
	3.557273769501661e-03
	4.810854910160331e-04
	4.810780274954311e-04
	1.555015215490143e-02
	1.554968575336654e-02
	1.770212867241454e-02
	1.770159679718273e-02
	1.070930899174513e-04
	1.070870236202384e-04
	1.089767024576706e-04
	1.089705311255559e-04
	2.417208507737566e-02

 24	3.849159021949672e+00
	7.024787408807814e-06
	3.681098801518603e-03
	3.677276771918881e-03
	3.462872317896752e-03
	3.458750580530630e-03
	4.677616405098451e-04
	4.677539644961555e-04
	1.511949725136256e-02
	1.511901757116095e-02
	1.721187573927096e-02
	1.721132872130693e-02
	1.041273523805770e-04
	1.041211133778824e-04
	1.059588017941250e-04
	1.059524547662168e-04
	2.350271338632859e-02

 25	4.071515547789679e+00
	6.830305215377966e-06
	3.579357815011850e-03
	3.575427088083866e-03
	3.367192365161328e-03
	3.362953425477883e-03
	4.548064590180625e-04
	4.547985644679366e-04
	1.470075886503994e-02
	1.470026552854119e-02
	1.673518844327436e-02
	1.673462585193580e-02
	1.012436834077803e-04
	1.012372667884747e-04
	1.030244131619145e-04
	1.030178854420494e-04
	2.285186549032033e-02

 26	4.306717067640506e+00
	6.641209095839335e-06
	3.480437732593378e-03
	3.476395227628357e-03
	3.274166103696961e-03
	3.269806641570467e-03
	4.422097142441923e-04
	4.422015949433771e-04
	1.429360626671922e-02
	1.429309888561515e-02
	1.627169028582765e-02
	1.627111167829560e-02
	9.843980541075346e-05
	9.843320612487919e-05
	1.001712189131740e-04
	1.001645053639565e-04
	2.221902733441289e-02

 27	4.555505605468011e+00
	6.457349937411911e-06
	3.384260407908699e-03
	3.380102958042915e-03
	3.183720042753617e-03
	3.179236645351324e-03
	4.299614550988546e-04
	4.299531046575045e-04
	1.389771781666080e-02
	1.389719599167276e-02
	1.582101511569571e-02
	1.582042003664068e-02
	9.571350340009858e-05
	9.570671625506677e-05
	9.739696509997280e-05
	9.739006043890653e-05
	2.160369899293721e-02

 28	4.818666050152229e+00
	6.278582756948407e-06
	3.290749844884352e-03
	3.286474194826001e-03
	3.095782714374642e-03
	3.091171873723575e-03
	4.180520037268639e-04
	4.180434155747464e-04
	1.351278070689714e-02
	1.351224402747657e-02
	1.538280683563929e-02
	1.538219481687982e-02
	9.306262321063454e-05
	9.305564286733594e-05
	9.469945966840671e-05
	9.469235846393802e-05
	2.100539426893962e-02

 29	5.097028631688890e+00
	6.104766586606892e-06
	3.199832136697838e-03
	3.195434940411297e-03
	3.010284615997781e-03
	3.005542726507162e-03
	4.064719477388426e-04
	4.064631151204376e-04
	1.313849071014076e-02
	1.313793875416322e-02
	1.495671911657466e-02
	1.495608967672841e-02
	9.048506977223084e-05
	9.047789074106161e-05
	9.207657069901846e-05
	9.206926736649327e-05
	2.042364030390368e-02

 30	5.391471540435052e+00
	5.935764362689754e-06
	3.111435406298384e-03
	3.106913224647520e-03
	2.927158154514467e-03
	2.922281510455704e-03
	3.952121326403086e-04
	3.952030486098040e-04
	1.277455193507520e-02
	1.277398426852788e-02
	1.454241511899942e-02
	1.454176776312676e-02
	8.797880542459830e-05
	8.797142206140174e-05
	8.952622469194785e-05
	8.951871348948321e-05
	1.985797719739340e-02

 31	5.702923697662160e+00
	5.771442817561194e-06
	3.025489748423194e-03
	3.020839046775841e-03
	2.846337591735324e-03
	2.841322384681974e-03
	3.842636544512640e-04
	3.842543118674496e-04
	1.242067658780318e-02
	1.242009276446610e-02
	1.413956722142760e-02
	1.413890144066811e-02
	8.554184827448292e-05
	8.553425477640947e-05
	8.704640489523121e-05
	8.703867991950358e-05
	1.930795763626659e-02

 32	6.032367686157211e+00
	5.611672374558236e-06
	2.941927173054464e-03
	2.937144318850676e-03
	2.767758991210278e-03
	2.762601307440972e-03
	3.736178525093775e-04
	3.736082440304398e-04
	1.207658473922896e-02
	1.207598430034999e-02
	1.374785675558029e-02
	1.374717202678215e-02
	8.317227059372578e-05
	8.316446099501383e-05
	8.463514967468532e-05
	8.462720485663830e-05
	1.877314653311191e-02

 33	6.380842850117579e+00
	5.456327045812156e-06
	2.860681550262678e-03
	2.855762810549967e-03
	2.691360166351956e-03
	2.686055984219918e-03
	3.632663024499144e-04
	3.632564205281382e-04
	1.174200409815323e-02
	1.174138657211732e-02
	1.336697374807924e-02
	1.336626953342204e-02
	8.086819725666418e-05
	8.086016542434516e-05
	8.229055092382450e-05
	8.228238002429957e-05
	1.825312067356463e-02

 34	6.749448574119218e+00
	5.305284332899907e-06
	2.781688556382156e-03
	2.776630095321595e-03
	2.617080629811457e-03
	2.611625817084969e-03
	3.532008093556175e-04
	3.531906462319972e-04
	1.141666978986121e-02
	1.141603469185403e-02
	1.299661666839395e-02
	1.299589241500508e-02
	7.862780421535965e-05
	7.861954384489189e-05
	8.001075251227030e-05
	8.000234911756507e-05
	1.774746837216005e-02

 35	7.139347751502845e+00
	5.158425130247173e-06
	2.704885621464876e-03
	2.699683497812719e-03
	2.544861544055581e-03
	2.539251855234631e-03
	3.434134010697754e-04
	3.434029487685450e-04
	1.110032413998497e-02
	1.109967097165148e-02
	1.263649218279284e-02
	1.263574732235813e-02
	7.644931701114750e-05
	7.644082162198454e-05
	7.779394877112120e-05
	7.778530628848102e-05
	1.725578913638414e-02

 36	7.551770453120341e+00
	5.015633631206791e-06
	2.630211877958769e-03
	2.624862042529133e-03
	2.474645673094789e-03
	2.468876746710086e-03
	3.338963216657465e-04
	3.338855719888359e-04
	1.079271646342244e-02
	1.079204471252085e-02
	1.228631491405087e-02
	1.228554886242003e-02
	7.433100932100831e-05
	7.432227225210839e-05
	7.563838301375686e-05
	7.562949466680644e-05
	1.677769333858284e-02

 37	7.988017808015676e+00
	4.876797236738615e-06
	2.557608110556693e-03
	2.552106403671883e-03
	2.406377335311137e-03
	2.400444691212822e-03
	3.246420250662219e-04
	3.246309695876486e-04
	1.049360285809603e-02
	1.049291199814784e-02
	1.194580720666662e-02
	1.194501936345409e-02
	7.227120153726431e-05
	7.226221594254939e-05
	7.354234609055320e-05
	7.353320491467720e-05
	1.631280189539244e-02

 38	8.449466108283303e+00
	4.741806466618672e-06
	2.487016707162092e-03
	2.481358856098309e-03
	2.340002357335222e-03
	2.333901393979876e-03
	3.156431688055125e-04
	3.156317988657228e-04
	1.020274600333357e-02
	1.020203549327044e-02
	1.161469889734124e-02
	1.161388864552353e-02
	7.026825937910559e-05
	7.025901822288026e-05
	7.150417497598777e-05
	7.149477381367017e-05
	1.586074595435281e-02

 39	8.937571151054209e+00
	4.610554873107716e-06
	2.418381610917305e-03
	2.412563227354842e-03
	2.275468028921089e-03
	2.269194020667128e-03
	3.068926079281494e-04
	3.068809146283225e-04
	9.919914962654772e-03
	9.919184246463136e-03
	1.129272709047271e-02
	1.129189379598309e-02
	6.832059253445092e-05
	6.831108858679284e-05
	6.952225138661228e-05
	6.951258288274716e-05
	1.542116658736635e-02

 40	9.453872831307907e+00
	4.482938957011001e-06
	2.351648273240047e-03
	2.345664850728613e-03
	2.212723058767650e-03
	2.206271153190868e-03
	2.983833890170678e-04
	2.983713632134008e-04
	9.644884990745393e-03
	9.644133497109913e-03
	1.097963593841725e-02
	1.097877894973921e-02
	6.642665333064242e-05
	6.641687916277917e-05
	6.759500042836721e-05
	6.758505702555542e-05
	1.499371449066343e-02

 41	9.999999999999963e+00
	4.358858086063132e-06
	2.286763607813305e-03
	2.280610519264906e-03
	2.151717531234839e-03
	2.145082746477819e-03
	2.901087443446314e-04
	2.900963766426254e-04
	9.377437344401208e-03
	9.376664486348406e-03
	1.067517642626998e-02
	1.067429507403078e-02
	6.458493543247237e-05
	6.457488341216134e-05
	6.572088927170836e-05
	6.571066320555749e-05
	1.457804969093517e-02

 42	1.057767560283172e+01
	4.238214415573622e-06
	2.223675945473399e-03
	2.217348440697222e-03
	2.092402863902228e-03
	2.085580086073526e-03
	2.820620861397209e-04
	2.820493668884946e-04
	9.117359097222551e-03
	9.116564271766114e-03
	1.037910616091512e-02
	1.037819975748133e-02
	6.279397256603081e-05
	6.278363485296258e-05
	6.389842585300907e-05
	6.388790914745722e-05
	1.417384125729234e-02

 43	1.118872211587418e+01
	4.120912811270595e-06
	2.162334989940458e-03
	2.155828193236527e-03
	2.034731765917311e-03
	2.027715746558880e-03
	2.742370009640890e-04
	2.742239202507460e-04
	8.864442957839566e-03
	8.863625545629163e-03
	1.009118916409556e-02
	1.009025700317260e-02
	6.105233726685864e-05
	6.104170580810726e-05
	6.212615760069493e-05
	6.211534206338215e-05
	1.378076701870774e-02

 44	1.183506729519464e+01
	4.006860774281739e-06
	2.102691774334925e-03
	2.096000682165979e-03
	1.978658197080073e-03
	1.971443550724242e-03
	2.666272441911465e-04
	2.666137918352322e-04
	8.618487091447059e-03
	8.617646456422795e-03
	9.811195669250037e-03
	9.810237025488088e-03
	5.935863965088107e-05
	5.934770617642911e-05
	6.040267018455981e-05
	6.039154740227574e-05
	1.339851328659789e-02

 45	1.251875025862524e+01
	3.895968368193418e-06
	2.044698618423211e-03
	2.037818097187254e-03
	1.924137327609832e-03
	1.916718529450522e-03
	2.592267345803178e-04
	2.592129001284050e-04
	8.379294944427055e-03
	8.378430433482010e-03
	9.538901921865276e-03
	9.537916050474479e-03
	5.771152620659156e-05
	5.770028222496220e-05
	5.872658628670613e-05
	5.871514762094642e-05
	1.302677458219790e-02

 46	1.324192791886039e+01
	3.788148148130364e-06
	1.988309086534901e-03
	1.981233870464381e-03
	1.871125498539743e-03
	1.863496882246302e-03
	2.520295489400827e-04
	2.520153216605308e-04
	8.146675071836232e-03
	8.145786014490002e-03
	9.274089983089508e-03
	9.273076119467677e-03
	5.610967860694935e-05
	5.609811540098331e-05
	5.709656439254531e-05
	5.708480097521532e-05
	1.266525336838243e-02

 47	1.400688178817863e+01
	3.683315091800052e-06
	1.933477946093410e-03
	1.926202635310929e-03
	1.819580182683683e-03
	1.811735938390072e-03
	2.450299168728047e-04
	2.450152857507491e-04
	7.920440967535100e-03
	7.919526675621694e-03
	9.016547536353337e-03
	9.015504895730031e-03
	5.455181253945094e-05
	5.453992116227195e-05
	5.551129760029201e-05
	5.549920032960255e-05
	1.231365978558470e-02

 48	1.481602517625655e+01
	3.581386532447391e-06
	1.880161126701503e-03
	1.872680185466467e-03
	1.769459946119802e-03
	1.761394118626743e-03
	2.382222155944642e-04
	2.382071693270941e-04
	7.700410896736135e-03
	7.699470664110123e-03
	8.766067696744219e-03
	8.764995473845660e-03
	5.303667655283782e-05
	5.302444782405770e-05
	5.396951244738701e-05
	5.395707198399367e-05
	1.197171139146569e-02

 49	1.567191080378301e+01
	3.482282093666802e-06
	1.828315679722689e-03
	1.820623434908481e-03
	1.720724410134492e-03
	1.712430897367782e-03
	2.316009648224367e-04
	2.315854918146373e-04
	7.486407730748822e-03
	7.485440833014253e-03
	8.522448822881992e-03
	8.521346191621924e-03
	5.156305091890837e-05
	5.155047542113058e-05
	5.246996775229042e-05
	5.245717451573648e-05
	1.163913290398725e-02

 50	1.657723885589309e+01
	3.385923626020346e-06
	1.777899738299472e-03
	1.769990378146563e-03
	1.673334213570429e-03
	1.664806765344956e-03
	2.251608217245428e-04
	2.251449100849830e-04
	7.278258783702368e-03
	7.277264477969693e-03
	8.285494331045654e-03
	8.284360444248153e-03
	5.012974650791898e-05
	5.011681458360876e-05
	5.101145347010243e-05
	5.099829763563484e-05
	1.131565594754628e-02

 51	1.753486550082950e+01
	3.292235145411868e-06
	1.728872477749515e-03
	1.720740050946616e-03
	1.627250975522324e-03
	1.618483192668551e-03
	2.188965759227102e-04
	2.188802134604732e-04
	7.075795651030373e-03
	7.074773175707389e-03
	8.055012511305986e-03
	8.053846500467065e-03
	4.873560367608458e-05
	4.872230542488432e-05
	4.959278956049699e-05
	4.957926105633526e-05
	1.100101880183285e-02

 52	1.854781190070605e+01
	3.201142773168575e-06
	1.681194076281482e-03
	1.672832491434385e-03
	1.582437258324501e-03
	1.573422592242367e-03
	2.128031445447856e-04
	2.127863187666532e-04
	6.878854049508145e-03
	6.877802624131933e-03
	7.830816345425635e-03
	7.829617320521591e-03
	4.737949116373132e-05
	4.736581644031187e-05
	4.821282486649456e-05
	4.819891337164480e-05
	1.069496615308466e-02

 53	1.961927374280109e+01
	3.112574677782791e-06
	1.634825675973458e-03
	1.626228701529815e-03
	1.538856530775412e-03
	1.529588283489876e-03
	2.068755673183111e-04
	2.068582654268298e-04
	6.687273658642162e-03
	6.686192483759999e-03
	7.612723326298489e-03
	7.611490375650099e-03
	4.606030500271477e-05
	4.604624341526686e-05
	4.687043600266353e-05
	4.685613094538377e-05
	1.039724884742351e-02

 54	2.075263132145048e+01
	3.026461018267947e-06
	1.589729343958798e-03
	1.580890608666795e-03
	1.496473131545840e-03
	1.486944456348821e-03
	2.011090017004679e-04
	2.010912105929432e-04
	6.500897963223761e-03
	6.499786220332213e-03
	7.400555278714321e-03
	7.399287468917408e-03
	4.477696743180146e-05
	4.476250834128717e-05
	4.556452625142522e-05
	4.554981680846388e-05
	1.010762364597892e-02

 55	2.195146020234689e+01
	2.942733889084119e-06
	1.545868033767182e-03
	1.536781027757071e-03
	1.455252232720158e-03
	1.445456135495456e-03
	1.954987180389205e-04
	1.954804243075087e-04
	6.319574096876097e-03
	6.318430948428841e-03
	7.194138181254217e-03
	7.192834557188563e-03
	4.352842581882934e-05
	4.351355833913087e-05
	4.429402446625679e-05
	4.427889956300396e-05
	9.825852981529720e-03

 56	2.321954250288969e+01
	2.861327266589702e-06
	1.503205546772777e-03
	1.493863623362597e-03
	1.415159803423647e-03
	1.405089144764852e-03
	1.900400947589963e-04
	1.900212846920862e-04
	6.143152686446090e-03
	6.141977275942524e-03
	6.993301989147824e-03
	6.991961574078242e-03
	4.231365158861578e-05
	4.229836458773899e-05
	4.305788398074309e-05
	4.304233229245490e-05
	9.551704716429401e-03

 57	2.456087882417314e+01
	2.782176956976968e-06
	1.461706493707121e-03
	1.452102872047930e-03
	1.376162573494107e-03
	1.365810071740543e-03
	1.847286135735580e-04
	1.847092731586641e-04
	5.971487697122740e-03
	5.970279149291227e-03
	6.797880457957525e-03
	6.796502253742827e-03
	4.113163915578649e-05
	4.111592125829898e-05
	4.185508152263575e-05
	4.183909147691466e-05
	9.284951901626674e-03

 58	2.597970087225633e+01
	2.705220545650434e-06
	1.421336256201967e-03
	1.411464024893554e-03
	1.338227997162892e-03
	1.327586232495529e-03
	1.795598547131097e-04
	1.795399696415279e-04
	5.804436278201364e-03
	5.803193699292840e-03
	6.607710967997858e-03
	6.606293955425688e-03
	3.998140486195888e-05
	3.996524445286804e-05
	4.068461613234368e-05
	4.066817591308362e-05
	9.025372536651310e-03

 59	2.748048480853328e+01
	2.630397348008158e-06
	1.382060948337385e-03
	1.371913070162977e-03
	1.301324216719732e-03
	1.290385636477932e-03
	1.745294921751899e-04
	1.745090478487037e-04
	5.641858609462125e-03
	5.640581087672038e-03
	6.422634349454200e-03
	6.421177488722230e-03
	3.886198591704901e-05
	3.884537114735377e-05
	3.954550808561947e-05
	3.952860563865369e-05
	8.772749330510823e-03

 60	2.906796537132112e+01
	2.557648361587087e-06
	1.343847378183378e-03
	1.333416696131440e-03
	1.265420026147644e-03
	1.254176951548642e-03
	1.696332889940102e-04
	1.696122705339740e-04
	5.483617748192560e-03
	5.482304354231578e-03
	6.242494708234575e-03
	6.240996939601331e-03
	3.777243934489194e-05
	3.775535813907414e-05
	3.843679782063533e-05
	3.841942086135738e-05
	8.526869463538121e-03

 61	3.074715081321818e+01
	2.486916219534747e-06
	1.306663009339903e-03
	1.295942254102862e-03
	1.230484834729551e-03
	1.218929469196021e-03
	1.648670925336814e-04
	1.648454847928503e-04
	5.329579476960905e-03
	5.328229264797531e-03
	6.067139252676049e-03
	6.065599497307787e-03
	3.671184093389351e-05
	3.669428099965027e-05
	3.735754487017886e-05
	3.733968089344351e-05
	8.287524350349384e-03

 62	3.252333870135666e+01
	2.418145145370562e-06
	1.270475922501042e-03
	1.259457721664826e-03
	1.196488630647612e-03
	1.184613069974507e-03
	1.602268298113168e-04
	1.602046173888425e-04
	5.179612152341919e-03
	5.178224160143227e-03
	5.896418121335443e-03
	5.894835282378965e-03
	3.567928419408482e-05
	3.566123303464322e-05
	3.630682680036443e-05
	3.628846309301545e-05
	8.054509404218330e-03

 63	3.440213263039742e+01
	2.351280909001116e-06
	1.235254777095350e-03
	1.223931666260103e-03
	1.163401944620633e-03
	1.151198189240936e-03
	1.557085028599379e-04
	1.556856701200049e-04
	5.033586554914531e-03
	5.032159806214616e-03
	5.730184212227798e-03
	5.728557176142943e-03
	3.467387932275724e-05
	3.465532425215616e-05
	3.528373815807591e-05
	3.526486181449253e-05
	7.827623803354918e-03

 64	3.638945990099371e+01
	2.286270783954661e-06
	1.200968773086729e-03
	1.189333209187984e-03
	1.131195813655047e-03
	1.118655783295130e-03
	1.513081841455351e-04
	1.512847152401678e-04
	4.891375740993361e-03
	4.889909246122772e-03
	5.568293014038573e-03
	5.566620652228328e-03
	3.369475218183719e-05
	3.367568034360951e-05
	3.428738943035594e-05
	3.426798737145842e-05
	7.606670259797672e-03

 65	3.849159021949657e+01
	2.223063505801135e-06
	1.167587613060067e-03
	1.155631990191021e-03
	1.099841745022153e-03
	1.086957296071119e-03
	1.470220120580095e-04
	1.469978909546484e-04
	4.752854896729844e-03
	4.751347654543325e-03
	5.410602440033347e-03
	5.408883610814157e-03
	3.274104329135441e-05
	3.272144168109517e-05
	3.331690602017175e-05
	3.329696501638024e-05
	7.391454791897988e-03

 66	4.071515547789663e+01
	2.161609231724883e-06
	1.135081464764351e-03
	1.122798132833643e-03
	1.069311680619667e-03
	1.056074626573165e-03
	1.428461865021839e-04
	1.428213970166974e-04
	4.617901195427364e-03
	4.616352195371605e-03
	5.256972665626203e-03
	5.255206216585996e-03
	3.181190684479126e-05
	3.179176233715404e-05
	3.237142724444715e-05
	3.235093394314545e-05
	7.181786501698232e-03

 67	4.306717067640490e+01
	2.101859501218199e-06
	1.103420924344598e-03
	1.090802210939780e-03
	1.039577961930479e-03
	1.025980097307865e-03
	1.387769646227892e-04
	1.387514904586629e-04
	4.486393659164184e-03
	4.484801883731921e-03
	5.107265970851960e-03
	5.105450741648792e-03
	3.090650975381674e-05
	3.088580913454151e-05
	3.145010536199614e-05
	3.142904632011403e-05
	6.977477358892445e-03

 68	4.555505605467994e+01
	2.043767197864642e-06
	1.072576980564147e-03
	1.059615216428617e-03
	1.010613295857452e-03
	9.966464240313058e-04
	1.348106567064790e-04
	1.347844815010028e-04
	4.358213026113395e-03
	4.356577453735186e-03
	4.961346589323755e-03
	4.959481414983545e-03
	3.002403073194213e-05
	3.000276073558175e-05
	3.055210464106296e-05
	3.053046636345582e-05
	6.778341993517003e-03

 69	4.818666050152211e+01
	1.987286512182014e-06
	1.042520980402321e-03
	1.029208528972086e-03
	9.823907217914659e-04
	9.680466872096883e-04
	1.309436223146684e-04
	1.309167296930249e-04
	4.233241625296469e-03
	4.231561233726569e-03
	4.819080565652830e-03
	4.817164280430571e-03
	2.916365942902472e-05
	2.914180678310403e-05
	2.967660047860463e-05
	2.965436946297707e-05
	6.584197500058076e-03

 70	5.097028631688872e+01
	1.932372905495645e-06