Title: simulation of the folded cascode ota designed with the sekv model
Date: Thu May 22 15:12:05  2025
Plotname: Noise Spectral Density Curves
Flags: real
No. Variables: 23
No. Points: 329
Variables:
	0	frequency	frequency grid=3
	1	inoise_spectrum	voltage-density
	2	onoise_n.x1a.nsg13_lv_nmos	voltage-density
	3	onoise_n.x1a.nsg13_lv_nmos_flicker	voltage-density
	4	onoise_n.x1b.nsg13_lv_nmos	voltage-density
	5	onoise_n.x1b.nsg13_lv_nmos_flicker	voltage-density
	6	onoise_n.x2b.nsg13_lv_pmos	voltage-density
	7	onoise_n.x2b.nsg13_lv_pmos_flicker	voltage-density
	8	onoise_n.x2c.nsg13_lv_pmos	voltage-density
	9	onoise_n.x2c.nsg13_lv_pmos_flicker	voltage-density
	10	onoise_n.x3a.nsg13_lv_nmos	voltage-density
	11	onoise_n.x3a.nsg13_lv_nmos_flicker	voltage-density
	12	onoise_n.x3b.nsg13_lv_nmos_flicker	voltage-density
	13	onoise_n.x3b.nsg13_lv_nmos	voltage-density
	14	onoise_n.x4a.nsg13_lv_pmos	voltage-density
	15	onoise_n.x4a.nsg13_lv_pmos_flicker	voltage-density
	16	onoise_n.x4b.nsg13_lv_pmos	voltage-density
	17	onoise_n.x4b.nsg13_lv_pmos_flicker	voltage-density
	18	onoise_n.x5a.nsg13_lv_nmos	voltage-density
	19	onoise_n.x5a.nsg13_lv_nmos_flicker	voltage-density
	20	onoise_n.x5b.nsg13_lv_nmos	voltage-density
	21	onoise_n.x5b.nsg13_lv_nmos_flicker	voltage-density
	22	onoise_spectrum	voltage-density
Values:
 0	1.000000000000000e+00
	8.072665742744603e-06
	7.935216541984102e-03
	7.934175143094958e-03
	7.934537018920853e-03
	7.933495108740042e-03
	1.337256638927065e-02
	1.337171083482860e-02
	1.337533748149095e-02
	1.337448173647395e-02
	1.283598616980226e-02
	1.283577383318263e-02
	1.285165377675073e-02
	1.285186607793759e-02
	4.567929391605686e-04
	4.567743742449081e-04
	4.587427433756172e-04
	4.587241296201747e-04
	6.672660328353956e-05
	6.672342747346006e-05
	6.254275307745452e-05
	6.253952381730291e-05
	2.853086426670210e-02

 1	1.057767560283176e+00
	7.849160902549933e-06
	7.715546783908967e-03
	7.714475732438330e-03
	7.714886105733147e-03
	7.713814528414772e-03
	1.300232453806143e-02
	1.300144462102572e-02
	1.300501890870821e-02
	1.300413879567080e-02
	1.248056624024282e-02
	1.248034785686973e-02
	1.249578808059548e-02
	1.249600642752692e-02
	4.441452644490133e-04
	4.441261708697338e-04
	4.460410808122451e-04
	4.460219370023614e-04
	6.487910434395329e-05
	6.487583809860848e-05
	6.081110905966306e-05
	6.080778784257419e-05
	2.774092544843178e-02

 2	1.118872211587422e+00
	7.631845560475076e-06
	7.501960903908074e-03
	7.500859355849039e-03
	7.501318549659848e-03
	7.500216460782895e-03
	1.264233530594901e-02
	1.264143033273239e-02
	1.264495507959281e-02
	1.264404990479326e-02
	1.213498751208793e-02
	1.213476290978794e-02
	1.214977558862790e-02
	1.215000015344864e-02
	4.318478080592882e-04
	4.318281707645485e-04
	4.336911314636593e-04
	4.336714425078914e-04
	6.308276400671365e-05
	6.307940475133440e-05
	5.912741594026013e-05
	5.912400014817562e-05
	2.697286096061276e-02

 3	1.183506729519469e+00
	7.420548351326436e-06
	7.294290455002124e-03
	7.293157542356933e-03
	7.293665918172980e-03
	7.292532449313833e-03
	1.229231478332363e-02
	1.229138404061052e-02
	1.229486202570325e-02
	1.229393107566706e-02
	1.179897744076213e-02
	1.179874644246219e-02
	1.181334341418482e-02
	1.181357437393838e-02
	4.198908714628020e-04
	4.198706749725274e-04
	4.216831554021193e-04
	4.216629057796632e-04
	6.133616556760436e-05
	6.133271065417289e-05
	5.749034585552261e-05
	5.748683279590691e-05
	2.622606506044892e-02

 4	1.251875025862529e+00
	7.215102655540973e-06
	7.092371652862912e-03
	7.091206482964556e-03
	7.091764440996409e-03
	7.090598699050114e-03
	1.195198691810141e-02
	1.195102967228877e-02
	1.195446363775209e-02
	1.195350617871284e-02
	1.147227102388927e-02
	1.147203344747767e-02
	1.148622622199408e-02
	1.148646375876180e-02
	4.082650245352099e-04
	4.082442529289483e-04
	4.100076822497555e-04
	4.099868559982713e-04
	5.963793152992209e-05
	5.963437823509537e-05
	5.589860769089624e-05
	5.589499459462542e-05
	2.549994876944949e-02

 5	1.324192791886045e+00
	7.015346467797396e-06
	6.896045246484747e-03
	6.894846901299789e-03
	6.895454880788372e-03
	6.894255947271128e-03
	1.162108329774678e-02
	1.162009879436956e-02
	1.162349144758333e-02
	1.162250672490792e-02
	1.115461059204046e-02
	1.115436625022393e-02
	1.116816601865973e-02
	1.116841031970367e-02
	3.969610981101112e-04
	3.969397350145512e-04
	3.986555037005787e-04
	3.986340844036752e-04
	5.798672251676850e-05
	5.798306803974357e-05
	5.435094606148769e-05
	5.434723008067935e-05
	2.479393940835740e-02

 6	1.400688178817868e+00
	6.821122269265923e-06
	6.705156392415682e-03
	6.703923927827856e-03
	6.704582407383487e-03
	6.703349337715886e-03
	1.129934293729402e-02
	1.129833040043459e-02
	1.130168441615000e-02
	1.130067165374795e-02
	1.084574560524035e-02
	1.084549430539709e-02
	1.085891194891255e-02
	1.085916320682239e-02
	3.859701767377211e-04
	3.859482053138616e-04
	3.876176662481804e-04
	3.875956370225510e-04
	5.638123621328139e-05
	5.637747767360144e-05
	5.284614032065096e-05
	5.284231852643373e-05
	2.410748014487669e-02

 7	1.481602517625661e+00
	6.632276903395891e-06
	6.519554532447037e-03
	6.518286977521131e-03
	6.518996475492774e-03
	6.517728298263339e-03
	1.098651207319683e-02
	1.098547070487804e-02
	1.098878872732094e-02
	1.098774712703736e-02
	1.054543245506755e-02
	1.054517399909623e-02
	1.055822009746154e-02
	1.055847851030555e-02
	3.752835916426533e-04
	3.752609945726174e-04
	3.768854641134438e-04
	3.768628075956458e-04
	5.482020633795283e-05
	5.481634077325225e-05
	5.138300359576111e-05
	5.137907297598231e-05
	2.344002955383421e-02

 8	1.567191080378307e+00
	6.448661455143262e-06
	6.339093274665125e-03
	6.337789630890693e-03
	6.338550705765591e-03
	6.337246421974105e-03
	1.068234396284387e-02
	1.068127294240533e-02
	1.068455758735485e-02
	1.068348632834657e-02
	1.025343427219363e-02
	1.025316845635822e-02
	1.026585329629062e-02
	1.026611906777089e-02
	3.648929138751816e-04
	3.648696733486642e-04
	3.664504323666102e-04
	3.664271306994769e-04
	5.330240164219997e-05
	5.329842600588704e-05
	4.996038185058350e-05
	4.995633930745334e-05
	2.279106118943000e-02

 9	1.657723885589316e+00
	6.270131133542768e-06
	6.163630277766246e-03
	6.162289518280660e-03
	6.163102769114547e-03
	6.161761351394741e-03
	1.038659868957356e-02
	1.038549717303079e-02
	1.038875102987473e-02
	1.038764926796926e-02
	9.969520739200840e-03
	9.969247353971039e-03
	9.981580937240457e-03
	9.981854276852340e-03
	3.547899476503916e-04
	3.547660453507339e-04
	3.563043402379693e-04
	3.562803750566468e-04
	5.182662493740129e-05
	5.182253609627683e-05
	4.857715297328457e-05
	4.857299532095537e-05
	2.216006316922057e-02

 10	1.753486550082957e+00
	6.096545157532153e-06
	5.993027138545839e-03
	5.991648207336217e-03
	5.992514274214322e-03
	5.991134666035399e-03
	1.009904297303812e-02
	1.009791009242405e-02
	1.010113572619254e-02
	1.010000259322947e-02
	9.693467908534131e-03
	9.693186738421490e-03
	9.705178789730852e-03
	9.705459912926876e-03
	3.449667238700162e-04
	3.449421409598953e-04
	3.464391846120905e-04
	3.464145370296911e-04
	5.039171214859258e-05
	5.038750688040321e-05
	4.723222588950122e-05
	4.722794985158002e-05
	2.154653776951470e-02

 11	1.854781190070612e+00
	5.927766644938379e-06
	5.827149282469416e-03
	5.825731093552928e-03
	5.826650658081970e-03
	5.825231772928530e-03
	9.819449984760918e-03
	9.818284847449418e-03
	9.821484800828346e-03
	9.820319403982739e-03
	9.425058025438254e-03
	9.424768848827729e-03
	9.436428823474282e-03
	9.436717951832549e-03
	3.354154938217724e-04
	3.353902109284998e-04
	3.368471837001716e-04
	3.368218342930323e-04
	4.899653139411528e-05
	4.899220638503959e-05
	4.592453969966053e-05
	4.592014190665371e-05
	2.095000103184965e-02

 12	1.961927374280117e+00
	5.763662504538371e-06
	5.665865857236616e-03
	5.664407293818727e-03
	5.665381079650139e-03
	5.663921800180002e-03
	9.547599168737875e-03
	9.546400856748887e-03
	9.549577652074608e-03
	9.548379073161924e-03
	9.164079355736404e-03
	9.163781944713316e-03
	9.175119036036822e-03
	9.175416397434020e-03
	3.261287230508433e-04
	3.261027202512610e-04
	3.275207708854475e-04
	3.274946996779869e-04
	4.763998209038429e-05
	4.763553393245035e-05
	4.465306283995392e-05
	4.464853982664206e-05
	2.036998238022885e-02

 13	2.075263132145056e+00
	5.604103331109094e-06
	5.509049629253375e-03
	5.507549542863535e-03
	5.508578316248096e-03
	5.507077493427577e-03
	9.283276066939654e-03
	9.282043636225484e-03
	9.285199777462137e-03
	9.283967072224402e-03
	8.910326018312853e-03
	8.910020138485124e-03
	8.921043285108862e-03
	8.921349113898002e-03
	3.170990853988653e-04
	3.170723422038320e-04
	3.184525887367137e-04
	3.184257751858772e-04
	4.632099408117835e-05
	4.631641926961128e-05
	4.341679226616328e-05
	4.341214046890477e-05
	1.980602424881558e-02

 14	2.195146020234698e+00
	5.448963303384241e-06
	5.356576882926097e-03
	5.355034092530431e-03
	5.356118662904565e-03
	5.354575115120734e-03
	9.026272149569440e-03
	9.025004629281850e-03
	9.028142603982747e-03
	9.026874801355476e-03
	8.663597822160441e-03
	8.663283232475998e-03
	8.674001125346107e-03
	8.674315662539086e-03
	3.083194572053771e-04
	3.082919525438345e-04
	3.096354831849758e-04
	3.096079061642599e-04
	4.503852679059195e-05
	4.503382172108973e-05
	4.221475265976795e-05
	4.220996841372999e-05
	1.925768171977296e-02

 15	2.321954250288979e+00
	5.298120084837063e-06
	5.208327322698081e-03
	5.206740613788636e-03
	5.207881834392549e-03
	5.206294346542033e-03
	8.776384649942008e-03
	8.775081041679691e-03
	8.778203322934093e-03
	8.776899424293593e-03
	8.423700107863721e-03
	8.423376560422986e-03
	8.433797649651730e-03
	8.434121143106816e-03
	2.997829116670189e-04
	2.997546238696303e-04
	3.010624978586427e-04
	3.010341356416906e-04
	4.379156839907082e-05
	4.378672936500706e-05
	4.104599565566884e-05
	4.104107519198403e-05
	1.872452217096346e-02

 16	2.456087882417324e+00
	5.151454727211099e-06
	5.064183977747987e-03
	5.062552101408099e-03
	5.063750869935986e-03
	5.062118192489888e-03
	8.533416403848849e-03
	8.532075680884918e-03
	8.535184729251499e-03
	8.533843707642191e-03
	8.190443593388204e-03
	8.190110833251536e-03
	8.200243334769741e-03
	8.200576039384087e-03
	2.914827133501119e-04
	2.914536201324640e-04
	2.927268685726052e-04
	2.926976988163636e-04
	4.257913504186126e-05
	4.257415823141339e-05
	3.990959909085533e-05
	3.990453853370260e-05
	1.820612493321970e-02

 17	2.597970087225644e+00
	5.008851576722730e-06
	4.924033109268243e-03
	4.922354781213631e-03
	4.923612040496113e-03
	4.921932888540637e-03
	8.297175693271033e-03
	8.295796799760148e-03
	8.298895065188472e-03
	8.297515864529835e-03
	7.963644224042752e-03
	7.963301989032782e-03
	7.973153891056687e-03
	7.973496068963979e-03
	2.834123128516318e-04
	2.833823912969913e-04
	2.846220179664714e-04
	2.845920176939028e-04
	4.140027002909849e-05
	4.139515152230006e-05
	3.880466627345713e-05
	3.879946163706558e-05
	1.770208095689124e-02

 18	2.748048480853339e+00
	4.870198182861585e-06
	4.787764120252616e-03
	4.786038019847802e-03
	4.787354758566780e-03
	4.785627810819183e-03
	8.067476094320578e-03
	8.066057944485363e-03
	8.069147868226484e-03
	8.067729402499299e-03
	7.743123026500748e-03
	7.742771046999492e-03
	7.752350116316964e-03
	7.752702037090264e-03
	2.755653416046328e-04
	2.755345681462508e-04
	2.767415502878519e-04
	2.767106958701915e-04
	4.025404308705204e-05
	4.024877885276765e-05
	3.773032527153738e-05
	3.772497245711153e-05
	1.721199248741290e-02

 19	2.906796537132124e+00
	4.735385209716903e-06
	4.655269467714352e-03
	4.653494236964076e-03
	4.654871490400140e-03
	4.653095388199652e-03
	7.844136329277813e-03
	7.842677806574234e-03
	7.845761823081783e-03
	7.844302975493319e-03
	7.528705966752997e-03
	7.528343965493650e-03
	7.537657753574665e-03
	7.538019694434587e-03
	2.679356068237491e-04
	2.679039572267051e-04
	2.690792463161510e-04
	2.690475134547028e-04
	3.913954961975664e-05
	3.913413551257839e-05
	3.668572822104365e-05
	3.668022301360913e-05
	1.673547274961230e-02

 20	3.074715081321830e+00
	4.604306349759915e-06
	4.526444577261796e-03
	4.524618819777102e-03
	4.526057670589587e-03
	4.524231016863005e-03
	7.626980122601703e-03
	7.625480078863119e-03
	7.628560617685795e-03
	7.627060239813670e-03
	7.320223811873951e-03
	7.319851503727312e-03
	7.328907352663421e-03
	7.329279598691669e-03
	2.605170865861264e-04
	2.604845359287050e-04
	2.616290584226495e-04
	2.615964221301144e-04
	3.805590999051121e-05
	3.805034174757553e-05
	3.567005065236544e-05
	3.566438871753359e-05
	1.627214564049360e-02

 21	3.252333870135678e+00
	4.476858240014235e-06
	4.401187759962212e-03
	4.399310039900951e-03
	4.400811618940723e-03
	4.398932977142399e-03
	7.415836060796332e-03
	7.414293315355952e-03
	7.417372803022601e-03
	7.415829713937045e-03
	7.117511995489531e-03
	7.117129087244953e-03
	7.125934135522295e-03
	7.126316979880679e-03
	2.533039250443480e-04
	2.532704476989434e-04
	2.543851057629041e-04
	2.543515403442335e-04
	3.700226882259112e-05
	3.699654206031485e-05
	3.468249083489279e-05
	3.467666771554349e-05
	1.582164543024862e-02

 22	3.440213263039755e+00
	4.352940380548198e-06
	4.279400131419150e-03
	4.277468972400684e-03
	4.279034459555684e-03
	4.277102352581711e-03
	7.210537456007852e-03
	7.208950794799366e-03
	7.212031656697611e-03
	7.210444642061900e-03
	6.920410486825645e-03
	6.920016676966468e-03
	6.928577865076756e-03
	6.928971609231721e-03
	2.462904277665925e-04
	2.462559973801346e-04
	2.473416695970608e-04
	2.473071486298314e-04
	3.597779431857774e-05
	3.597190452931266e-05
	3.372226913905942e-05
	3.371628025194112e-05
	1.538361647122704e-02

 23	3.638945990099385e+00
	4.232455055224833e-06
	4.160985532999926e-03
	4.158999416993908e-03
	4.160630042067369e-03
	4.158642951143822e-03
	7.010922213244970e-03
	7.009290387881207e-03
	7.012375050130557e-03
	7.010742861279458e-03
	6.728763663234963e-03
	6.728358641708372e-03
	6.736682717602194e-03
	6.737087671554924e-03
	2.394710572007190e-04
	2.394356466746170e-04
	2.404931887345359e-04
	2.404576850488398e-04
	3.498167759778988e-05
	3.497562014639508e-05
	3.278862741529189e-05
	3.278246804753813e-05
	1.495771291463764e-02

 24	3.849159021949672e+00
	4.115307254646997e-06
	4.045850455141778e-03
	4.043807821330929e-03
	4.045504864952197e-03
	4.043461228497369e-03
	6.816832701102748e-03
	6.815154427932234e-03
	6.818245319252477e-03
	6.816566672248604e-03
	6.542420186086480e-03
	6.542003634067744e-03
	6.550097158454291e-03
	6.550513640976432e-03
	2.328404282578951e-04
	2.328040097274964e-04
	2.338342550988337e-04
	2.337977407566840e-04
	3.401313205117532e-05
	3.400690217150688e-05
	3.188082838938511e-05
	3.187449369494721e-05
	1.454359843472391e-02

 25	4.071515547789679e+00
	4.001404601236880e-06
	3.933903962669044e-03
	3.931803206285986e-03
	3.933568000853694e-03
	3.931466213314366e-03
	6.628115625875702e-03
	6.626389585017101e-03
	6.629489138592753e-03
	6.627762713260787e-03
	6.361232879908555e-03
	6.360804469559641e-03
	6.368673821056918e-03
	6.369102159931924e-03
	2.263933040120874e-04
	2.263558488256507e-04
	2.273596094086617e-04
	2.273220556829092e-04
	3.307139271311875e-05
	3.306498550443647e-05
	3.099815507369950e-05
	3.099164006969514e-05
	1.414094596017107e-02

 26	4.306717067640506e+00
	3.890657276390851e-06
	3.825057622060929e-03
	3.822897093199193e-03
	3.824731023856504e-03
	3.822569434518390e-03
	6.444621908958503e-03
	6.442846743312968e-03
	6.445957398654381e-03
	6.444181837593204e-03
	6.185058614687836e-03
	6.184618008910384e-03
	6.192269389049785e-03
	6.192709921319906e-03
	2.201245915118524e-04
	2.200860702090343e-04
	2.210641369718231e-04
	2.210255143245863e-04
	3.215571564965127e-05
	3.214912607294281e-05
	3.013991019373716e-05
	3.013320975671504e-05
	1.374943741252731e-02

 27	4.555505605468011e+00
	3.782977949652139e-06
	3.719225430600854e-03
	3.717003433000365e-03
	3.718907938641833e-03
	3.716684850414483e-03
	6.266206567418073e-03
	6.264380881659680e-03
	6.267505086461340e-03
	6.265678994034249e-03
	6.013758191212534e-03
	6.013305043395225e-03
	6.020744481484283e-03
	6.021197553703147e-03
	2.140293377003752e-04
	2.139897199902346e-04
	2.149428635878927e-04
	2.149031416485044e-04
	3.126537736251022e-05
	3.125860023673283e-05
	2.930541562957720e-05
	2.929852449169826e-05
	1.336876345139141e-02

 28	4.818666050152229e+00
	3.678281709845534e-06
	3.616323747344832e-03
	3.614038537152283e-03
	3.616015111461750e-03
	3.613728779638330e-03
	6.092728597631793e-03
	6.090850957176317e-03
	6.093991169172692e-03
	6.092113110475935e-03
	5.847196229359227e-03
	5.846730183119602e-03
	5.853963540966479e-03
	5.854429509457244e-03
	2.081027254404151e-04
	2.080619801789393e-04
	2.089909515561081e-04
	2.089500990985818e-04
	3.039967420845663e-05
	3.039270420669767e-05
	2.849401187161346e-05
	2.848692461674966e-05
	1.299862322614236e-02

 29	5.097028631688890e+00
	3.576485998119791e-06
	3.516271225847783e-03
	3.513921010352504e-03
	3.515971202871276e-03
	3.513619833863837e-03
	5.924050861889036e-03
	5.922119791841480e-03
	5.925278480660586e-03
	5.923346980470663e-03
	5.685241059224417e-03
	5.684761748145213e-03
	5.691794724648542e-03
	5.692273955767507e-03
	2.023400696402828e-04
	2.022981648074448e-04
	2.032036957849153e-04
	2.031616807049419e-04
	2.955792183341586e-05
	2.955075347897341e-05
	2.770505749018203e-05
	2.769776854993418e-05
	1.263872413399129e-02

 30	5.391471540435052e+00
	3.477510542844939e-06
	3.418988748582404e-03
	3.416571684928544e-03
	3.418697102152897e-03
	3.416278852203948e-03
	5.760039977846021e-03
	5.758053961927457e-03
	5.761233610942242e-03
	5.759247152642507e-03
	5.527764614995550e-03
	5.527271662355695e-03
	5.534109797963083e-03
	5.534602668368652e-03
	1.967368134774731e-04
	1.966937161538301e-04
	1.975765199993968e-04
	1.975333092908810e-04
	2.873945462084106e-05
	2.873208228322660e-05
	2.693792861852048e-05
	2.693043226815704e-05
	1.228878158412151e-02

 31	5.702923697662160e+00
	3.381277296313140e-06
	3.324399362994139e-03
	3.321913556870200e-03
	3.324115863377014e-03
	3.321628837248432e-03
	5.600566210739016e-03
	5.598523690193511e-03
	5.601726798370793e-03
	5.599683822858137e-03
	5.374642331470349e-03
	5.374135349970783e-03
	5.380784031009303e-03
	5.381290927936122e-03
	1.912885247164326e-04
	1.912442010592824e-04
	1.921049730433502e-04
	1.920605327745047e-04
	2.794362515384519e-05
	2.793604304471121e-05
	2.619201844863375e-05
	2.618430880295371e-05
	1.194851876771382e-02

 32	6.032367686157211e+00
	3.287710373193189e-06
	3.232428219125388e-03
	3.229871723432450e-03
	3.232152643031520e-03
	3.229594892672148e-03
	5.445503368243537e-03
	5.443402740726131e-03
	5.446631824472707e-03
	5.444530729045287e-03
	5.225753043116808e-03
	5.225231634601342e-03
	5.231696097483128e-03
	5.232217419021175e-03
	1.859908921167247e-04
	1.859453073358410e-04
	1.867847252721380e-04
	1.867390205611532e-04
	2.716980369052963e-05
	2.716200585952550e-05
	2.546673673953173e-05
	2.545880774865480e-05
	1.161766643361747e-02

 33	6.380842850117579e+00
	3.196735990690133e-06
	3.143002508752585e-03
	3.140373322252860e-03
	3.142734639164098e-03
	3.140104162357658e-03
	5.294728697884731e-03
	5.292568316331700e-03
	5.295825911336913e-03
	5.293665048564165e-03
	5.080978885583036e-03
	5.080442640754548e-03
	5.086727976060542e-03
	5.087264131438896e-03
	1.808397219284224e-04
	1.807928402613925e-04
	1.816115650330893e-04
	1.815645600234067e-04
	2.641737765205923e-05
	2.640935798262003e-05
	2.476150933740601e-05
	2.475335478249498e-05
	1.129596266946466e-02

 34	6.749448574119218e+00
	3.108282410362787e-06
	3.056051405973821e-03
	3.053347471921557e-03
	3.055791031974945e-03
	3.053085770970303e-03
	5.148122786894321e-03
	5.145900958377245e-03
	5.149189621450983e-03
	5.146967298027437e-03
	4.940205199556688e-03
	4.939653697688993e-03
	4.945764854133753e-03
	4.946316264008672e-03
	1.758309344710325e-04
	1.757827191582318e-04
	1.765813952298482e-04
	1.765330530650684e-04
	2.568575112294390e-05
	2.567750332801750e-05
	2.407577770723808e-05
	2.406739119615881e-05
	1.098315268800542e-02

 35	7.139347751502845e+00
	3.022279881553290e-06
	2.971506009188631e-03
	2.968725213945816e-03
	2.971252925801534e-03
	2.968470765927755e-03
	5.005569464416035e-03
	5.003284448981547e-03
	5.006606759886316e-03
	5.004321235471081e-03
	4.803320436880143e-03
	4.802753245525986e-03
	4.808695033806321e-03
	4.809262130553195e-03
	1.709605607927097e-04
	1.709109740519512e-04
	1.716902299673009e-04
	1.716405127657658e-04
	2.497434436302280e-05
	2.496586198074215e-05
	2.340899847541377e-05
	2.340037343833986e-05
	1.067898861845365e-02

 36	7.551770453120341e+00
	2.938660586384064e-06
	2.889299284406708e-03
	2.886439456046520e-03
	2.889053292432199e-03
	2.886192060701343e-03
	4.866955705953450e-03
	4.864605715450923e-03
	4.867964278726164e-03
	4.865613764770356e-03
	4.670216068819811e-03
	4.669632743515518e-03
	4.675409840045649e-03
	4.675993068054310e-03
	1.662247394060624e-04
	1.661737424069691e-04
	1.669341912734733e-04
	1.668830601025706e-04
	2.428259333066694e-05
	2.427386971997575e-05
	2.276064298281178e-05
	2.275177266778234e-05
	1.038322930261818e-02

 37	7.988017808015676e+00
	2.857358586278831e-06
	2.809366009829126e-03
	2.806424916730630e-03
	2.809126915692105e-03
	2.806184379393277e-03
	4.732171539965610e-03
	4.729754736865486e-03
	4.733152183641903e-03
	4.730734842206715e-03
	4.540786496399134e-03
	4.540186580366560e-03
	4.545803530902331e-03
	4.546403346875060e-03
	1.616197130974010e-04
	1.615672659355593e-04
	1.623095058951384e-04
	1.622569207453866e-04
	2.360994921668996e-05
	2.360097755293170e-05
	2.213019684794247e-05
	2.212107431638309e-05
	1.009564009561708e-02

 38	8.449466108283303e+00
	2.778309769965462e-06
	2.731642721640743e-03
	2.728618071079021e-03
	2.731410337240302e-03
	2.728384202529119e-03
	4.601109956507683e-03
	4.598624452713708e-03
	4.602063442514750e-03
	4.599577385083424e-03
	4.414928962696987e-03
	4.414311986543529e-03
	4.419773209698126e-03
	4.420390082949587e-03
	1.571418258058580e-04
	1.570878874768212e-04
	1.578125021636263e-04
	1.577584219226085e-04
	2.295587798846507e-05
	2.294665125894721e-05
	2.151715953965403e-05
	2.150777766187302e-05
	9.815992670956196e-03

 39	8.937571151054209e+00
	2.701451802919698e-06
	2.656067660950927e-03
	2.652957097687549e-03
	2.655841803514982e-03
	2.652729714003408e-03
	4.473666817811366e-03
	4.471110673470569e-03
	4.474593895997653e-03
	4.472037182285186e-03
	4.292543467010857e-03
	4.291908948428458e-03
	4.297218739081930e-03
	4.297853151840119e-03
	1.527875195688272e-04
	1.527320479420496e-04
	1.534396069272277e-04
	1.533839893534574e-04
	2.231985994373255e-05
	2.231037094328009e-05
	2.092104395892507e-05
	2.091139540959952e-05
	9.544064829747416e-03

 40	9.453872831307907e+00
	2.626724078209831e-06
	2.582580721826443e-03
	2.579381826706092e-03
	2.582361213770830e-03
	2.579160749123152e-03
	4.349740770711172e-03
	4.347111993026129e-03
	4.350642169923426e-03
	4.348012806688577e-03
	4.173532680795201e-03
	4.172880124259442e-03
	4.178042656864217e-03
	4.178695104571323e-03
	1.485533315305285e-04
	1.484962833233296e-04
	1.491873425469652e-04
	1.491301442437804e-04
	2.170138927362160e-05
	2.169163060013655e-05
	2.034137602927712e-05
	2.033145328294554e-05
	9.279640313866609e-03

 41	9.999999999999963e+00
	2.554067668703617e-06
	2.511123400351710e-03
	2.507833688911745e-03
	2.510910069143620e-03
	2.507618743685383e-03
	4.229233160808275e-03
	4.226529702857023e-03
	4.230109589450788e-03
	4.227405529315728e-03
	4.057801865271546e-03
	4.057130761742096e-03
	4.062150093526578e-03
	4.062821085138491e-03
	1.444358910099594e-04
	1.443772217616302e-04
	1.450523239520709e-04
	1.449935003416721e-04
	2.109997363435148e-05
	2.108993768439806e-05
	1.977769429533264e-05
	1.976748962191450e-05
	9.022508622820348e-03

 42	1.057767560283172e+01
	2.483425280599661e-06
	2.441638744656952e-03
	2.438255665757855e-03
	2.441431422682647e-03
	2.438046684030483e-03
	4.112047948272675e-03
	4.109267707842545e-03
	4.112900094849112e-03
	4.110119235132999e-03
	3.945258790615812e-03
	3.944568617239759e-03
	3.949448691311946e-03
	3.950138749594873e-03
	1.404319166249435e-04
	1.403715806711309e-04
	1.410312557517190e-04
	1.409707610494849e-04
	2.051513372710805e-05
	2.050481269154658e-05
	1.922954952903642e-05
	1.921905498940190e-05
	8.772464834110077e-03

 43	1.118872211587418e+01
	2.414741208246709e-06
	2.374071305852227e-03
	2.370592240338194e-03
	2.373869830288927e-03
	2.370389058010548e-03
	3.998091625180352e-03
	3.995232443623056e-03
	3.998920158818422e-03
	3.996060340392230e-03
	3.835813656624297e-03
	3.835103876444144e-03
	3.839848524797105e-03
	3.840558186619534e-03
	1.365382134686506e-04
	1.364761639161759e-04
	1.371209293995267e-04
	1.370587165887657e-04
	1.994640288560420e-05
	1.993578874530063e-05
	1.869650434306234e-05
	1.868571178467983e-05
	8.529309426873386e-03

 44	1.183506729519464e+01
	2.347961290215122e-06
	2.308367089804909e-03
	2.304789349205345e-03
	2.308171302496789e-03
	2.304591806811915e-03
	3.887273134281475e-03
	3.884332795398018e-03
	3.888078705240787e-03
	3.885137711411972e-03
	3.729379014759594e-03
	3.728649076427963e-03
	3.733262022848873e-03
	3.733991839466824e-03
	1.327516703351735e-04
	1.326878590374694e-04
	1.333182204072621e-04
	1.332542412145837e-04
	1.939332667077167e-05
	1.938241119241444e-05
	1.817813281091678e-05
	1.816703386361037e-05
	8.292848108581208e-03

 45	1.251875025862524e+01
	2.283032866585948e-06
	2.244473509697216e-03
	2.240794334981646e-03
	2.244283257035433e-03
	2.240602277570158e-03
	3.779503789094392e-03
	3.776480018059749e-03
	3.780287029257739e-03
	3.777262584694679e-03
	3.625869691476198e-03
	3.625119028979689e-03
	3.629603891864032e-03
	3.630354429197154e-03
	1.290692569904546e-04
	1.290036345238338e-04
	1.296200856041421e-04
	1.295542904756616e-04
	1.885546247210550e-05
	1.884423720416621e-05
	1.767402009326660e-05
	1.766260616512070e-05
	8.062891644566569e-03

 46	1.324192791886039e+01
	2.219904737423862e-06
	2.182339339302813e-03
	2.178555899703664e-03
	2.182154472109493e-03
	2.178369176718568e-03
	3.674697195224304e-03
	3.671587657563432e-03
	3.675458718572645e-03
	3.672348488280423e-03
	3.525202712730069e-03
	3.524430745125066e-03
	3.528791040197442e-03
	3.529562879093174e-03
	1.254880214852365e-04
	1.254205371262403e-04
	1.260235604383136e-04
	1.259558985169402e-04
	1.833237911511329e-05
	1.832083538399382e-05
	1.718376206998775e-05
	1.717202434344245e-05
	7.839255690169810e-03

 47	1.400688178817863e+01
	2.158527122401226e-06
	2.121914666915891e-03
	2.118024058835907e-03
	2.121735040332007e-03
	2.117842524005802e-03
	3.572769172796397e-03
	3.569571473424983e-03
	3.573509575867777e-03
	3.570311164228718e-03
	3.427297229567567e-03
	3.426503360731250e-03
	3.430742503674158e-03
	3.431536240156673e-03
	1.220050875062460e-04
	1.219356892103609e-04
	1.225257563167155e-04
	1.224561754208115e-04
	1.782365647435727e-05
	1.781178538077290e-05
	1.670696497745079e-05
	1.669489440563814e-05
	7.621760625265604e-03

 48	1.481602517625655e+01
	2.098851621541429e-06
	2.063150849873059e-03
	2.059150095896644e-03
	2.062976323250139e-03
	2.058973607125596e-03
	3.473637679905130e-03
	3.470349362250557e-03
	3.474357542237718e-03
	3.471068492132159e-03
	3.332074444700897e-03
	3.331258063101251e-03
	3.335379372093039e-03
	3.336195617593211e-03
	1.186176517622736e-04
	1.185462861443492e-04
	1.191238579800226e-04
	1.190523045837685e-04
	1.732888509157609e-05
	1.731667750723159e-05
	1.624324505056745e-05
	1.623083235394690e-05
	7.410231390962624e-03

 49	1.567191080378301e+01
	2.040831177050516e-06
	2.006000469603249e-03
	2.001886517634040e-03
	2.005830906398861e-03
	2.001714936896738e-03
	3.377222736973072e-03
	3.373841282193504e-03
	3.377922621532527e-03
	3.374540413557727e-03
	3.239457539969462e-03
	3.238618018458631e-03
	3.242624716621757e-03
	3.243464098183772e-03
	1.153229814015504e-04
	1.152495937183040e-04
	1.158151209090041e-04
	1.157415401248551e-04
	1.684766579838129e-05
	1.683511236300608e-05
	1.579222816910691e-05
	1.577946383246718e-05
	7.204497328249166e-03

 50	1.657723885589309e+01
	1.984420036206996e-06
	1.950417287141818e-03
	1.946187009692109e-03
	1.950252554818771e-03
	1.946020202932821e-03
	3.283446351914591e-03
	3.279969178236810e-03
	3.284126805505929e-03
	3.280648857313762e-03
	3.149371604588595e-03
	3.148508300224640e-03
	3.152403517985172e-03
	3.153266678444751e-03
	1.121184114568924e-04
	1.120429455919437e-04
	1.125968687587490e-04
	1.125212043224290e-04
	1.637960934298310e-05
	1.636670046180178e-05
	1.535354950780651e-05
	1.534042377771151e-05
	7.004392018362182e-03

 51	1.753486550082950e+01
	1.929573715280573e-06
	1.896356199051021e-03
	1.892006392712503e-03
	1.896196168980224e-03
	1.891844229747797e-03
	3.192232446010358e-03
	3.188656908210095e-03
	3.192893999674449e-03
	3.189317665451622e-03